 TITLE = "Time curves in points"
 VARIABLES = "TIME"  "STRAIN_PLS"  "PRESSURE1"  "STRESS_XX"  "STRESS_YY"  "STRESS_ZZ"  "STRESS_XY"  "STRESS_XZ"  "STRESS_YZ"  "VELOCITY_X1"  "VELOCITY_Y1"  "VELOCITY_Z1"  "DISPLACEMENT_X1"  "DISPLACEMENT_Y1"  "DISPLACEMENT_Z1"  p_(1st_Invariant)  q_(2nd_Invariant)   Effective_Strain
 ZONE T="POINT=INJ_POINT_OFFFAULT"
0.000000000000e+00 0.000000000000e+00 5.000000000000e+05 -3.300000000000e+06 -6.000000000000e+06 -7.000000000000e+06 0.000000000000e+00 0.000000000000e+00 0.000000000000e+00 0.000000000000e+00 0.000000000000e+00 0.000000000000e+00 0.000000000000e+00 0.000000000000e+00 0.000000000000e+00 5.433333333333e+06 3.315116890850e+06  0.000000000000e+00
5.000000000000e-02 0.000000000000e+00 5.000000000000e+05 -3.300000000000e+06 -6.000000000000e+06 -7.000000000000e+06 1.871064898364e-09 1.940679017084e-09 3.136612625676e-08 -4.550101338642e-22 -2.378405607570e-18 1.362393664456e-18 0.000000000000e+00 2.118888722383e-18 8.095804035846e-19 5.433333333333e+06 3.315116890850e+06  1.756931215549e-16
5.000000000000e-02 0.000000000000e+00 5.000000000000e+05 -3.300000000000e+06 -6.000000000000e+06 -7.000000000000e+06 1.871064898364e-09 1.940679017084e-09 3.136612625676e-08 -4.550101338642e-22 -2.378405607570e-18 1.362393664456e-18 0.000000000000e+00 2.118888722383e-18 8.095804035846e-19 5.433333333333e+06 3.315116890850e+06  1.756931215549e-16
1.000000000000e-01 0.000000000000e+00 5.000000000000e+05 -3.300000000000e+06 -6.000000000000e+06 -7.000000000000e+06 1.855999832443e-09 1.959857399286e-09 3.175388909970e-08 -2.576344884736e-22 -6.681613594642e-19 5.135483845222e-19 0.000000000000e+00 2.094334634899e-18 8.755274025535e-19 5.433333333333e+06 3.315116890850e+06  1.777263196714e-16
1.000000000000e-01 0.000000000000e+00 5.000000000000e+05 -3.300000000000e+06 -6.000000000000e+06 -7.000000000000e+06 1.855999832443e-09 1.959857399286e-09 3.175388909970e-08 -2.576344884736e-22 -6.681613594642e-19 5.135483845222e-19 0.000000000000e+00 2.094334634899e-18 8.755274025535e-19 5.433333333333e+06 3.315116890850e+06  1.777263196714e-16
1.500000000000e-01 0.000000000000e+00 6.223000000000e+05 -3.325909625990e+06 -5.973247076504e+06 -6.974933688515e+06 3.011378601001e-01 7.951944364590e-02 -9.523804101545e+03 2.992232044585e-13 -1.217767117282e-09 4.525096555195e-10 0.000000000000e+00 1.449330811890e-10 7.156611044786e-12 5.424696797003e+06 3.265554506629e+06  9.889616829292e-05
1.500000000000e-01 0.000000000000e+00 6.223000000000e+05 -3.325909625990e+06 -5.973247076504e+06 -6.974933688515e+06 3.011378601001e-01 7.951944364590e-02 -9.523804101545e+03 2.992232044585e-13 -1.217767117282e-09 4.525096555195e-10 0.000000000000e+00 1.449330811890e-10 7.156611044786e-12 5.424696797003e+06 3.265554506629e+06  9.889616829292e-05
2.000000000000e-01 0.000000000000e+00 7.446000000000e+05 -3.343298119787e+06 -5.954797243473e+06 -6.958606527706e+06 1.643831313792e-01 3.620283325209e-01 -1.248295482159e+04 3.253658379722e-12 -1.863164480093e-09 -2.934808085775e-10 0.000000000000e+00 3.837028559542e-10 -1.708360790672e-11 5.418900630322e+06 3.232564816169e+06  1.558722871328e-04
2.000000000000e-01 0.000000000000e+00 7.446000000000e+05 -3.343298119787e+06 -5.954797243473e+06 -6.958606527706e+06 1.643831313792e-01 3.620283325209e-01 -1.248295482159e+04 3.253658379722e-12 -1.863164480093e-09 -2.934808085775e-10 0.000000000000e+00 3.837028559542e-10 -1.708360790672e-11 5.418900630322e+06 3.232564816169e+06  1.558722871328e-04
2.750000000000e-01 0.000000000000e+00 7.446000000000e+05 -3.338246420813e+06 -5.946602470346e+06 -6.976904753336e+06 -5.270288223927e-02 2.998534943637e-01 -2.253880882244e+04 3.658387730022e-12 3.815400783264e-11 -7.074597704263e-10 0.000000000000e+00 5.752693048664e-10 -1.333722036776e-10 5.420584548165e+06 3.248686390198e+06  1.809156689626e-04
2.750000000000e-01 0.000000000000e+00 7.446000000000e+05 -3.338246420813e+06 -5.946602470346e+06 -6.976904753336e+06 -5.270288223927e-02 2.998534943637e-01 -2.253880882244e+04 3.658387730022e-12 3.815400783264e-11 -7.074597704263e-10 0.000000000000e+00 5.752693048664e-10 -1.333722036776e-10 5.420584548165e+06 3.248686390198e+06  1.809156689626e-04
3.875000000000e-01 0.000000000000e+00 7.446000000000e+05 -3.338197375089e+06 -5.936531500209e+06 -6.987073832652e+06 -5.300450589494e-02 2.264237632820e-01 -3.323036888273e+04 1.180776187577e-12 1.692849626110e-10 -4.221574473052e-10 0.000000000000e+00 8.127226106537e-10 -2.248270632793e-10 5.420600902650e+06 3.253913364325e+06  2.332474762268e-04
3.875000000000e-01 0.000000000000e+00 7.446000000000e+05 -3.338197375089e+06 -5.936531500209e+06 -6.987073832652e+06 -5.300450589494e-02 2.264237632820e-01 -3.323036888273e+04 1.180776187577e-12 1.692849626110e-10 -4.221574473052e-10 0.000000000000e+00 8.127226106537e-10 -2.248270632793e-10 5.420600902650e+06 3.253913364325e+06  2.332474762268e-04
5.562500000000e-01 0.000000000000e+00 7.446000000000e+05 -3.339888651246e+06 -5.926843414230e+06 -6.993379335523e+06 -6.347175000182e-02 2.325799504967e-01 -4.205077776756e+04 1.336766643389e-13 2.945624902781e-11 -2.308236377575e-10 0.000000000000e+00 1.092919603861e-09 -3.078259612863e-10 5.420037133667e+06 3.254876157759e+06  2.829316473664e-04
5.562500000000e-01 0.000000000000e+00 7.446000000000e+05 -3.339888651246e+06 -5.926843414230e+06 -6.993379335523e+06 -6.347175000182e-02 2.325799504967e-01 -4.205077776756e+04 1.336766643389e-13 2.945624902781e-11 -2.308236377575e-10 0.000000000000e+00 1.092919603861e-09 -3.078259612863e-10 5.420037133667e+06 3.254876157759e+06  2.829316473664e-04
8.093750000000e-01 0.000000000000e+00 7.446000000000e+05 -3.342233444413e+06 -5.917621313562e+06 -6.997911861564e+06 -4.557699094418e-02 2.224210112478e-01 -4.971240297708e+04 1.620541365934e-13 -3.871002830109e-11 -1.638491956621e-10 0.000000000000e+00 1.430741881298e-09 -4.276555897990e-10 5.419255539846e+06 3.254109937628e+06  3.283631234453e-04
8.093750000000e-01 0.000000000000e+00 7.446000000000e+05 -3.342233444413e+06 -5.917621313562e+06 -6.997911861564e+06 -4.557699094418e-02 2.224210112478e-01 -4.971240297708e+04 1.620541365934e-13 -3.871002830109e-11 -1.638491956621e-10 0.000000000000e+00 1.430741881298e-09 -4.276555897990e-10 5.419255539846e+06 3.254109937628e+06  3.283631234453e-04
1.189062500000e+00 0.000000000000e+00 7.446000000000e+05 -3.344874008683e+06 -5.908793934245e+06 -7.001458117117e+06 -3.535086658423e-02 2.158139058785e-01 -5.666303039805e+04 8.467789165332e-14 -3.949393074776e-11 -1.051499041053e-10 0.000000000000e+00 1.829012253640e-09 -5.659817471141e-10 5.418375353348e+06 3.252496882194e+06  3.706016452066e-04
1.189062500000e+00 0.000000000000e+00 7.446000000000e+05 -3.344874008683e+06 -5.908793934245e+06 -7.001458117117e+06 -3.535086658423e-02 2.158139058785e-01 -5.666303039805e+04 8.467789165332e-14 -3.949393074776e-11 -1.051499041053e-10 0.000000000000e+00 1.829012253640e-09 -5.659817471141e-10 5.418375353348e+06 3.252496882194e+06  3.706016452066e-04
1.758593750000e+00 0.000000000000e+00 7.446000000000e+05 -3.347646904794e+06 -5.900329809961e+06 -7.004376458465e+06 -3.917265298581e-02 2.165808097832e-01 -6.309740050813e+04 4.204077958080e-14 -1.608808920604e-11 -3.539467178041e-11 0.000000000000e+00 2.287898592308e-09 -7.104043752429e-10 5.417451057740e+06 3.250435950515e+06  4.102512498000e-04
1.758593750000e+00 0.000000000000e+00 7.446000000000e+05 -3.347646904794e+06 -5.900329809961e+06 -7.004376458465e+06 -3.917265298581e-02 2.165808097832e-01 -6.309740050813e+04 4.204077958080e-14 -1.608808920604e-11 -3.539467178041e-11 0.000000000000e+00 2.287898592308e-09 -7.104043752429e-10 5.417451057740e+06 3.250435950515e+06  4.102512498000e-04
2.612890625000e+00 0.000000000000e+00 7.446000000000e+05 -3.350448551567e+06 -5.892256086932e+06 -7.006846888125e+06 -3.844057296731e-02 2.155644145040e-01 -6.908144201192e+04 1.247600915306e-14 1.667664841890e-11 4.309637492436e-11 0.000000000000e+00 2.834534500966e-09 -8.551811679480e-10 5.416517175541e+06 3.248151818366e+06  4.474575667053e-04
2.612890625000e+00 0.000000000000e+00 7.446000000000e+05 -3.350448551567e+06 -5.892256086932e+06 -7.006846888125e+06 -3.844057296731e-02 2.155644145040e-01 -6.908144201192e+04 1.247600915306e-14 1.667664841890e-11 4.309637492436e-11 0.000000000000e+00 2.834534500966e-09 -8.551811679480e-10 5.416517175541e+06 3.248151818366e+06  4.474575667053e-04
3.894335937500e+00 0.000000000000e+00 7.446000000000e+05 -3.353192588558e+06 -5.884651755494e+06 -7.008963145709e+06 -3.717021166904e-02 2.148834505835e-01 -7.460716097097e+04 3.658636101322e-15 4.814427327755e-11 1.112674325523e-10 0.000000000000e+00 3.534600819142e-09 -9.865340771733e-10 5.415602496587e+06 3.245798619244e+06  4.820335071851e-04
3.894335937500e+00 0.000000000000e+00 7.446000000000e+05 -3.353192588558e+06 -5.884651755494e+06 -7.008963145709e+06 -3.717021166904e-02 2.148834505835e-01 -7.460716097097e+04 3.658636101322e-15 4.814427327755e-11 1.112674325523e-10 0.000000000000e+00 3.534600819142e-09 -9.865340771733e-10 5.415602496587e+06 3.245798619244e+06  4.820335071851e-04
5.816503906250e+00 0.000000000000e+00 7.446000000000e+05 -3.355825545703e+06 -5.877576948332e+06 -7.010772037635e+06 -3.740938876699e-02 2.149340734006e-01 -7.965765962988e+04 7.017902530687e-16 5.307257615290e-11 1.174479066205e-10 0.000000000000e+00 4.471510376139e-09 -1.109322488147e-09 5.414724843890e+06 3.243460124804e+06  5.138017441863e-04
5.816503906250e+00 0.000000000000e+00 7.446000000000e+05 -3.355825545703e+06 -5.877576948332e+06 -7.010772037635e+06 -3.740938876699e-02 2.149340734006e-01 -7.965765962988e+04 7.017902530687e-16 5.307257615290e-11 1.174479066205e-10 0.000000000000e+00 4.471510376139e-09 -1.109322488147e-09 5.414724843890e+06 3.243460124804e+06  5.138017441863e-04
8.699755859375e+00 0.000000000000e+00 7.446000000000e+05 -3.358394309069e+06 -5.870822323457e+06 -7.012389134968e+06 -3.739860576269e-02 2.148850297370e-01 -8.441956477180e+04 4.599647198871e-17 3.845642449792e-11 8.380609616167e-11 0.000000000000e+00 5.648940337418e-09 -1.350611250019e-09 5.413868589165e+06 3.241134637579e+06  5.438632027787e-04
8.699755859375e+00 0.000000000000e+00 7.446000000000e+05 -3.358394309069e+06 -5.870822323457e+06 -7.012389134968e+06 -3.739860576269e-02 2.148850297370e-01 -8.441956477180e+04 4.599647198871e-17 3.845642449792e-11 8.380609616167e-11 0.000000000000e+00 5.648940337418e-09 -1.350611250019e-09 5.413868589165e+06 3.241134637579e+06  5.438632027787e-04
1.302463378906e+01 0.000000000000e+00 7.446000000000e+05 -3.360813061965e+06 -5.864524093163e+06 -7.013849859068e+06 -3.730570286059e-02 2.148357790286e-01 -8.883374744001e+04 4.260636522153e-18 2.064293550948e-11 4.440110994490e-11 0.000000000000e+00 6.942458977924e-09 -1.909674179038e-09 5.413062338065e+06 3.238946209264e+06  5.717790409227e-04
1.302463378906e+01 0.000000000000e+00 7.446000000000e+05 -3.360813061965e+06 -5.864524093163e+06 -7.013849859068e+06 -3.730570286059e-02 2.148357790286e-01 -8.883374744001e+04 4.260636522153e-18 2.064293550948e-11 4.440110994490e-11 0.000000000000e+00 6.942458977924e-09 -1.909674179038e-09 5.413062338065e+06 3.238946209264e+06  5.717790409227e-04
1.951195068359e+01 0.000000000000e+00 7.446000000000e+05 -3.362985887297e+06 -5.858937605359e+06 -7.015090696260e+06 -3.745636252580e-02 2.149030449782e-01 -9.272387889990e+04 7.392255690095e-18 1.138819935197e-12 2.180992548410e-12 0.000000000000e+00 8.320192094438e-09 -2.824521116594e-09 5.412338062972e+06 3.236967777910e+06  5.964259545260e-04
1.951195068359e+01 0.000000000000e+00 7.446000000000e+05 -3.362985887297e+06 -5.858937605359e+06 -7.015090696260e+06 -3.745636252580e-02 2.149030449782e-01 -9.272387889990e+04 7.392255690095e-18 1.138819935197e-12 2.180992548410e-12 0.000000000000e+00 8.320192094438e-09 -2.824521116594e-09 5.412338062972e+06 3.236967777910e+06  5.964259545260e-04
2.250000000000e+01 0.000000000000e+00 7.446000000000e+05 -3.363780316230e+06 -5.856895486427e+06 -7.015543957366e+06 -3.745520986512e-02 2.149524386280e-01 -9.415317420726e+04 -5.917926383567e-18 2.099881531468e-11 4.532517243175e-11 0.000000000000e+00 8.991006521509e-09 -3.129727222027e-09 5.412073253341e+06 3.236252164393e+06  6.054716903354e-04
2.250000000000e+01 0.000000000000e+00 7.446000000000e+05 -3.363780316230e+06 -5.856895486427e+06 -7.015543957366e+06 -3.745520986512e-02 2.149524386280e-01 -9.415317420726e+04 -5.917926383567e-18 2.099881531468e-11 4.532517243175e-11 0.000000000000e+00 8.991006521509e-09 -3.129727222027e-09 5.412073253341e+06 3.236252164393e+06  6.054716903354e-04
2.300000000000e+01 0.000000000000e+00 1.331800000000e+06 -3.486287876958e+06 -5.590943276650e+06 -7.036481222267e+06 6.809101014194e-02 1.373160096267e-01 -2.666422125855e+05 3.796112353062e-13 -1.450282752777e-10 -8.321756975736e-10 0.000000000000e+00 1.620189273124e-08 -5.954294246394e-09 5.371237458625e+06 3.126468895571e+06  1.719065722949e-03
2.300000000000e+01 0.000000000000e+00 1.331800000000e+06 -3.486287876958e+06 -5.590943276650e+06 -7.036481222267e+06 6.809101014194e-02 1.373160096267e-01 -2.666422125855e+05 3.796112353062e-13 -1.450282752777e-10 -8.321756975736e-10 0.000000000000e+00 1.620189273124e-08 -5.954294246394e-09 5.371237458625e+06 3.126468895571e+06  1.719065722949e-03
2.350000000000e+01 0.000000000000e+00 1.919000000000e+06 -3.663726155968e+06 -5.181910811210e+06 -7.090637484655e+06 4.795508465877e-02 9.452169092110e-02 -5.415813445441e+05 3.267395556870e-13 7.079377053760e-09 1.571009965748e-08 0.000000000000e+00 4.017231837200e-08 -1.211183891187e-08 5.312091483945e+06 3.118629950200e+06  3.477377798521e-03
2.350000000000e+01 0.000000000000e+00 1.919000000000e+06 -3.663726155968e+06 -5.181910811210e+06 -7.090637484655e+06 4.795508465877e-02 9.452169092110e-02 -5.415813445441e+05 3.267395556870e-13 7.079377053760e-09 1.571009965748e-08 0.000000000000e+00 4.017231837200e-08 -1.211183891187e-08 5.312091483945e+06 3.118629950200e+06  3.477377798521e-03
2.425000000000e+01 0.000000000000e+00 1.919000000000e+06 -3.692367350274e+06 -5.112274912558e+06 -7.102990908523e+06 6.511697879586e-02 6.226675734245e-02 -5.896077198924e+05 -9.014498586221e-14 2.621764825638e-10 1.050002936432e-09 0.000000000000e+00 6.846700282178e-08 -2.168329483285e-08 5.302544390452e+06 3.138253040965e+06  3.782559366779e-03
2.425000000000e+01 0.000000000000e+00 1.919000000000e+06 -3.692367350274e+06 -5.112274912558e+06 -7.102990908523e+06 6.511697879586e-02 6.226675734245e-02 -5.896077198924e+05 -9.014498586221e-14 2.621764825638e-10 1.050002936432e-09 0.000000000000e+00 6.846700282178e-08 -2.168329483285e-08 5.302544390452e+06 3.138253040965e+06  3.782559366779e-03
2.537500000000e+01 0.000000000000e+00 1.919000000000e+06 -3.707297158089e+06 -5.076058549973e+06 -7.109347675317e+06 4.144795413999e-02 9.036983944288e-02 -6.148489105342e+05 3.164465523572e-15 3.477041399530e-07 7.463777532838e-07 0.000000000000e+00 1.005884235960e-07 -5.401057727911e-08 5.297567794459e+06 3.150393247964e+06  3.942569895237e-03
2.537500000000e+01 0.000000000000e+00 1.919000000000e+06 -3.707297158089e+06 -5.076058549973e+06 -7.109347675317e+06 4.144795413999e-02 9.036983944288e-02 -6.148489105342e+05 3.164465523572e-15 3.477041399530e-07 7.463777532838e-07 0.000000000000e+00 1.005884235960e-07 -5.401057727911e-08 5.297567794459e+06 3.150393247964e+06  3.942569895237e-03
2.706250000000e+01 0.000000000000e+00 1.919000000000e+06 -3.716124660345e+06 -5.054633616822e+06 -7.113117606480e+06 2.820503557886e-02 9.875415060864e-02 -6.299124195061e+05 -1.274198237922e-15 2.175109661539e-05 4.666965627203e-05 0.000000000000e+00 1.577938502614e-07 -3.807417985570e-08 5.294625294549e+06 3.158263888264e+06  4.037869173710e-03
2.706250000000e+01 0.000000000000e+00 1.919000000000e+06 -3.716124660345e+06 -5.054633616822e+06 -7.113117606480e+06 2.820503557886e-02 9.875415060864e-02 -6.299124195061e+05 -1.274198237922e-15 2.175109661539e-05 4.666965627203e-05 0.000000000000e+00 1.577938502614e-07 -3.807417985570e-08 5.294625294549e+06 3.158263888264e+06  4.037869173710e-03
2.959375000000e+01 0.000000000000e+00 1.919000000000e+06 -3.722140875081e+06 -5.039993444223e+06 -7.115725350654e+06 2.562852301073e-02 1.005043988554e-01 -6.403182381009e+05 -1.855702678334e-16 2.068709716389e-05 4.484408823260e-05 0.000000000000e+00 1.787179970747e-07 -5.568635816565e-08 5.292619889986e+06 3.164005263150e+06  4.103536308303e-03
2.959375000000e+01 0.000000000000e+00 1.919000000000e+06 -3.722140875081e+06 -5.039993444223e+06 -7.115725350654e+06 2.562852301073e-02 1.005043988554e-01 -6.403182381009e+05 -1.855702678334e-16 2.068709716389e-05 4.484408823260e-05 0.000000000000e+00 1.787179970747e-07 -5.568635816565e-08 5.292619889986e+06 3.164005263150e+06  4.103536308303e-03
3.339062500000e+01 0.000000000000e+00 1.919000000000e+06 -3.726579839905e+06 -5.029120137859e+06 -7.117720727207e+06 2.457259442633e-02 1.009425214337e-01 -6.480389321654e+05 -2.801128620569e-17 -1.265313252211e-06 -2.715958239685e-06 0.000000000000e+00 1.942776898886e-07 -1.604602834332e-07 5.291140234990e+06 3.168471785637e+06  4.152269628727e-03
3.339062500000e+01 0.000000000000e+00 1.919000000000e+06 -3.726579839905e+06 -5.029120137859e+06 -7.117720727207e+06 2.457259442633e-02 1.009425214337e-01 -6.480389321654e+05 -2.801128620569e-17 -1.265313252211e-06 -2.715958239685e-06 0.000000000000e+00 1.942776898886e-07 -1.604602834332e-07 5.291140234990e+06 3.168471785637e+06  4.152269628727e-03
3.908593750000e+01 0.000000000000e+00 1.919000000000e+06 -3.730389268413e+06 -5.019566057736e+06 -7.119655951784e+06 2.391782074928e-02 1.012757116472e-01 -6.548347488382e+05 1.908546275349e-17 -1.217997783615e-05 -2.622145576524e-05 0.000000000000e+00 2.858551883440e-07 -1.215776286613e-07 5.289870425978e+06 3.172722356111e+06  4.195144502851e-03
3.908593750000e+01 0.000000000000e+00 1.919000000000e+06 -3.730389268413e+06 -5.019566057736e+06 -7.119655951784e+06 2.391782074928e-02 1.012757116472e-01 -6.548347488382e+05 1.908546275349e-17 -1.217997783615e-05 -2.622145576524e-05 0.000000000000e+00 2.858551883440e-07 -1.215776286613e-07 5.289870425978e+06 3.172722356111e+06  4.195144502851e-03
4.762890625000e+01 0.000000000000e+00 1.919000000000e+06 -3.731798930386e+06 -5.015714460072e+06 -7.120688225759e+06 2.353979369208e-02 1.016568005797e-01 -6.576611661413e+05 -3.046786208899e-18 -4.083977812362e-06 -8.770924791594e-06 0.000000000000e+00 3.841703221966e-07 -7.902675569186e-08 5.289400538739e+06 3.174825471943e+06  4.212844827586e-03
4.762890625000e+01 0.000000000000e+00 1.919000000000e+06 -3.731798930386e+06 -5.015714460072e+06 -7.120688225759e+06 2.353979369208e-02 1.016568005797e-01 -6.576611661413e+05 -3.046786208899e-18 -4.083977812362e-06 -8.770924791594e-06 0.000000000000e+00 3.841703221966e-07 -7.902675569186e-08 5.289400538739e+06 3.174825471943e+06  4.212844827586e-03
6.044335937500e+01 0.000000000000e+00 1.919000000000e+06 -3.731086516569e+06 -5.016947868388e+06 -7.120879645037e+06 2.362774235688e-02 1.014358999189e-01 -6.569755391831e+05 1.373289300228e-19 1.229927338922e-06 2.646368773956e-06 0.000000000000e+00 4.649688081127e-07 -1.168404015838e-07 5.289638009998e+06 3.174930467366e+06  4.208230449587e-03
6.044335937500e+01 0.000000000000e+00 1.919000000000e+06 -3.731086516569e+06 -5.016947868388e+06 -7.120879645037e+06 2.362774235688e-02 1.014358999189e-01 -6.569755391831e+05 1.373289300228e-19 1.229927338922e-06 2.646368773956e-06 0.000000000000e+00 4.649688081127e-07 -1.168404015838e-07 5.289638009998e+06 3.174930467366e+06  4.208230449587e-03
7.966503906250e+01 0.000000000000e+00 1.919000000000e+06 -3.729525392762e+06 -5.020098884793e+06 -7.120850876372e+06 2.355350785960e-02 1.013829621839e-01 -6.550029829568e+05 7.841980710705e-19 3.877656660090e-07 8.322237304676e-07 0.000000000000e+00 5.593587976195e-07 -1.780522125150e-07 5.290158384642e+06 3.174429149495e+06  4.195380904481e-03
7.966503906250e+01 0.000000000000e+00 1.919000000000e+06 -3.729525392762e+06 -5.020098884793e+06 -7.120850876372e+06 2.355350785960e-02 1.013829621839e-01 -6.550029829568e+05 7.841980710705e-19 3.877656660090e-07 8.322237304676e-07 0.000000000000e+00 5.593587976195e-07 -1.780522125150e-07 5.290158384642e+06 3.174429149495e+06  4.195380904481e-03
9.950000000000e+01 0.000000000000e+00 1.919000000000e+06 -3.727922194036e+06 -5.023385669233e+06 -7.120770489625e+06 2.334488016102e-02 1.014449480121e-01 -6.529118593711e+05 1.365274514702e-18 -4.420675728647e-07 -9.493513713158e-07 0.000000000000e+00 6.430437127650e-07 -2.130919757305e-07 5.290692784298e+06 3.173832985044e+06  4.181815970497e-03
9.950000000000e+01 0.000000000000e+00 1.919000000000e+06 -3.727922194036e+06 -5.023385669233e+06 -7.120770489625e+06 2.334488016102e-02 1.014449480121e-01 -6.529118593711e+05 1.365274514702e-18 -4.420675728647e-07 -9.493513713158e-07 0.000000000000e+00 6.430437127650e-07 -2.130919757305e-07 5.290692784298e+06 3.173832985044e+06  4.181815970497e-03
1.000000000000e+02 0.000000000000e+00 2.773000000000e+06 -3.963791797302e+06 -4.491822429952e+06 -7.180595052662e+06 2.424122698537e-02 7.327319693045e-02 -1.006067303387e+06 1.556845640794e-13 9.208096502576e-06 2.015160063406e-05 0.000000000000e+00 7.134080846534e-07 -2.299660061585e-07 5.212069759972e+06 3.458985853036e+06  6.447310006939e-03
1.000000000000e+02 0.000000000000e+00 2.773000000000e+06 -3.963791797302e+06 -4.491822429952e+06 -7.180595052662e+06 2.424122698537e-02 7.327319693045e-02 -1.006067303387e+06 1.556845640794e-13 9.208096502576e-06 2.015160063406e-05 0.000000000000e+00 7.134080846534e-07 -2.299660061585e-07 5.212069759972e+06 3.458985853036e+06  6.447310006939e-03
1.005000000000e+02 0.000000000000e+00 3.627000000000e+06 -4.228206424609e+06 -3.887779204904e+06 -7.255809675787e+06 -4.159662220603e-02 6.830584140480e-02 -1.410716064671e+06 1.216926732356e-13 6.031716594468e-05 1.312530147358e-04 0.000000000000e+00 8.627619013779e-07 -2.955622490058e-07 5.123931768433e+06 4.035258373511e+06  9.037746159621e-03
1.005000000000e+02 0.000000000000e+00 3.627000000000e+06 -4.228206424609e+06 -3.887779204904e+06 -7.255809675787e+06 -4.159662220603e-02 6.830584140480e-02 -1.410716064671e+06 1.216926732356e-13 6.031716594468e-05 1.312530147358e-04 0.000000000000e+00 8.627619013779e-07 -2.955622490058e-07 5.123931768433e+06 4.035258373511e+06  9.037746159621e-03
1.012500000000e+02 0.000000000000e+00 3.627000000000e+06 -4.242537348573e+06 -3.851815297561e+06 -7.263111744551e+06 -7.092700227760e-02 9.551356679228e-02 -1.436321363481e+06 -1.278962088101e-15 -3.590113235955e-05 -7.723039623644e-05 0.000000000000e+00 1.002067360037e-06 -3.413643069717e-07 5.119154796895e+06 4.079925931141e+06  9.199256700511e-03
1.012500000000e+02 0.000000000000e+00 3.627000000000e+06 -4.242537348573e+06 -3.851815297561e+06 -7.263111744551e+06 -7.092700227760e-02 9.551356679228e-02 -1.436321363481e+06 -1.278962088101e-15 -3.590113235955e-05 -7.723039623644e-05 0.000000000000e+00 1.002067360037e-06 -3.413643069717e-07 5.119154796895e+06 4.079925931141e+06  9.199256700511e-03
1.023750000000e+02 0.000000000000e+00 3.627000000000e+06 -4.246100442161e+06 -3.842199471253e+06 -7.265601371761e+06 -5.064066222267e-02 8.486737849789e-02 -1.443472212800e+06 -3.620995948786e-16 -2.048823459429e-05 -4.401432860153e-05 0.000000000000e+00 1.165997066390e-06 -3.510876990335e-07 5.117967095058e+06 4.092790894079e+06  9.243908906075e-03
1.023750000000e+02 0.000000000000e+00 3.627000000000e+06 -4.246100442161e+06 -3.842199471253e+06 -7.265601371761e+06 -5.064066222267e-02 8.486737849789e-02 -1.443472212800e+06 -3.620995948786e-16 -2.048823459429e-05 -4.401432860153e-05 0.000000000000e+00 1.165997066390e-06 -3.510876990335e-07 5.117967095058e+06 4.092790894079e+06  9.243908906075e-03
1.040625000000e+02 0.000000000000e+00 3.627000000000e+06 -4.244709848041e+06 -3.844547580456e+06 -7.266034446798e+06 -3.792142151782e-02 7.327035061312e-02 -1.442307015687e+06 -3.413927183181e-17 1.111741830666e-07 2.388254769410e-07 0.000000000000e+00 1.336452081927e-06 -3.983851966585e-07 5.118430625098e+06 4.091246858417e+06  9.235803445133e-03
1.040625000000e+02 0.000000000000e+00 3.627000000000e+06 -4.244709848041e+06 -3.844547580456e+06 -7.266034446798e+06 -3.792142151782e-02 7.327035061312e-02 -1.442307015687e+06 -3.413927183181e-17 1.111741830666e-07 2.388254769410e-07 0.000000000000e+00 1.336452081927e-06 -3.983851966585e-07 5.118430625098e+06 4.091246858417e+06  9.235803445133e-03
1.065937500000e+02 0.000000000000e+00 3.627000000000e+06 -4.240790731474e+06 -3.852745003762e+06 -7.265675235982e+06 -3.132414208013e-02 6.603015968942e-02 -1.437136102165e+06 -1.220461452316e-16 -2.304559122492e-06 -4.945954182725e-06 0.000000000000e+00 1.528859448280e-06 -4.560655773051e-07 5.119736990406e+06 4.082937642145e+06  9.202191246305e-03
1.065937500000e+02 0.000000000000e+00 3.627000000000e+06 -4.240790731474e+06 -3.852745003762e+06 -7.265675235982e+06 -3.132414208013e-02 6.603015968942e-02 -1.437136102165e+06 -1.220461452316e-16 -2.304559122492e-06 -4.945954182725e-06 0.000000000000e+00 1.528859448280e-06 -4.560655773051e-07 5.119736990406e+06 4.082937642145e+06  9.202191246305e-03
1.103906250000e+02 0.000000000000e+00 3.627000000000e+06 -4.233857278567e+06 -3.867775726930e+06 -7.264511408060e+06 -2.348696149514e-02 5.708322736722e-02 -1.427298739158e+06 -3.377561398917e-17 -2.804600683669e-08 -5.940475978814e-08 0.000000000000e+00 1.751553540235e-06 -5.654826420844e-07 5.122048137852e+06 4.066926578347e+06  9.138842578073e-03
1.103906250000e+02 0.000000000000e+00 3.627000000000e+06 -4.233857278567e+06 -3.867775726930e+06 -7.264511408060e+06 -2.348696149514e-02 5.708322736722e-02 -1.427298739158e+06 -3.377561398917e-17 -2.804600683669e-08 -5.940475978814e-08 0.000000000000e+00 1.751553540235e-06 -5.654826420844e-07 5.122048137852e+06 4.066926578347e+06  9.138842578073e-03
1.160859375000e+02 0.000000000000e+00 3.627000000000e+06 -4.223039209896e+06 -3.891358108776e+06 -7.262565168326e+06 -2.697791614661e-02 5.847724309324e-02 -1.411622918531e+06 1.954681683553e-18 -2.236038914090e-06 -4.798168650120e-06 0.000000000000e+00 2.062291659630e-06 -7.012481157881e-07 5.125654162333e+06 4.041648365946e+06  9.038282286916e-03
1.160859375000e+02 0.000000000000e+00 3.627000000000e+06 -4.223039209896e+06 -3.891358108776e+06 -7.262565168326e+06 -2.697791614661e-02 5.847724309324e-02 -1.411622918531e+06 1.954681683553e-18 -2.236038914090e-06 -4.798168650120e-06 0.000000000000e+00 2.062291659630e-06 -7.012481157881e-07 5.125654162333e+06 4.041648365946e+06  9.038282286916e-03
1.246289062500e+02 0.000000000000e+00 3.627000000000e+06 -4.210393913832e+06 -3.918932520224e+06 -7.260281351212e+06 -3.140074527365e-02 6.203547341469e-02 -1.393185062230e+06 -2.327294135414e-17 -1.122028513128e-06 -2.408368023069e-06 0.000000000000e+00 2.440580283870e-06 -7.578256618695e-07 5.129869261756e+06 4.012303754747e+06  8.920173519730e-03
1.246289062500e+02 0.000000000000e+00 3.627000000000e+06 -4.210393913832e+06 -3.918932520224e+06 -7.260281351212e+06 -3.140074527365e-02 6.203547341469e-02 -1.393185062230e+06 -2.327294135414e-17 -1.122028513128e-06 -2.408368023069e-06 0.000000000000e+00 2.440580283870e-06 -7.578256618695e-07 5.129869261756e+06 4.012303754747e+06  8.920173519730e-03
1.374433593750e+02 0.000000000000e+00 3.627000000000e+06 -4.205040765611e+06 -3.930555663642e+06 -7.259364503581e+06 -3.112250049164e-02 6.151139169696e-02 -1.385427997362e+06 -1.611965173987e-17 -2.253662348848e-06 -4.834526924982e-06 0.000000000000e+00 2.598091702641e-06 -8.037783086909e-07 5.131653644278e+06 4.000104265868e+06  8.870459833865e-03
1.374433593750e+02 0.000000000000e+00 3.627000000000e+06 -4.205040765611e+06 -3.930555663642e+06 -7.259364503581e+06 -3.112250049164e-02 6.151139169696e-02 -1.385427997362e+06 -1.611965173987e-17 -2.253662348848e-06 -4.834526924982e-06 0.000000000000e+00 2.598091702641e-06 -8.037783086909e-07 5.131653644278e+06 4.000104265868e+06  8.870459833865e-03
1.565000000000e+02 0.000000000000e+00 3.627000000000e+06 -4.203349646152e+06 -3.934141544647e+06 -7.259160861830e+06 -3.140144730959e-02 6.166881108954e-02 -1.383065513657e+06 -5.259690633064e-18 -2.013490521449e-06 -4.321111386177e-06 0.000000000000e+00 2.659363928172e-06 -8.220522380652e-07 5.132217350876e+06 3.996462807148e+06  8.855270000532e-03
1.565000000000e+02 0.000000000000e+00 3.627000000000e+06 -4.203349646152e+06 -3.934141544647e+06 -7.259160861830e+06 -3.140144730959e-02 6.166881108954e-02 -1.383065513657e+06 -5.259690633064e-18 -2.013490521449e-06 -4.321111386177e-06 0.000000000000e+00 2.659363928172e-06 -8.220522380652e-07 5.132217350876e+06 3.996462807148e+06  8.855270000532e-03
1.570000000000e+02 0.000000000000e+00 3.860500000000e+06 -4.270663507508e+06 -3.781775205690e+06 -7.276899651332e+06 -3.472621449773e-02 5.430724329612e-02 -1.484640812086e+06 8.569526769871e-15 4.399376994406e-06 9.467119624194e-06 0.000000000000e+00 2.701043617572e-06 -8.369920936366e-07 5.109779454843e+06 4.166372070524e+06  9.506314546717e-03
1.570000000000e+02 0.000000000000e+00 3.860500000000e+06 -4.270663507508e+06 -3.781775205690e+06 -7.276899651332e+06 -3.472621449773e-02 5.430724329612e-02 -1.484640812086e+06 8.569526769871e-15 4.399376994406e-06 9.467119624194e-06 0.000000000000e+00 2.701043617572e-06 -8.369920936366e-07 5.109779454843e+06 4.166372070524e+06  9.506314546717e-03
1.575000000000e+02 0.000000000000e+00 4.094000000000e+06 -4.340681786078e+06 -3.622315962571e+06 -7.296322522924e+06 -4.387465995567e-02 4.751190774350e-02 -1.591334944431e+06 1.009172455129e-14 2.145806596783e-06 4.625485878138e-06 0.000000000000e+00 2.768070397412e-06 -8.598355659450e-07 5.086440090524e+06 4.355701278750e+06  1.018954536195e-02