 TITLE = "Time curves in points"
 VARIABLES = "TIME"  "STRAIN_PLS"  "PRESSURE1"  "STRESS_XX"  "STRESS_YY"  "STRESS_ZZ"  "STRESS_XY"  "STRESS_XZ"  "STRESS_YZ"  "VELOCITY_X1"  "VELOCITY_Y1"  "VELOCITY_Z1"  "DISPLACEMENT_X1"  "DISPLACEMENT_Y1"  "DISPLACEMENT_Z1"  p_(1st_Invariant)  q_(2nd_Invariant)   Effective_Strain
 ZONE T="POINT=POINTANCHOR_BOT"
0.000000000000e+00 0.000000000000e+00 5.000000000000e+05 -3.300000000000e+06 -6.000000000000e+06 -7.000000000000e+06 0.000000000000e+00 0.000000000000e+00 0.000000000000e+00 0.000000000000e+00 0.000000000000e+00 0.000000000000e+00 0.000000000000e+00 0.000000000000e+00 0.000000000000e+00 5.433333333333e+06 3.315116890850e+06  0.000000000000e+00
5.000000000000e-02 0.000000000000e+00 5.000000000000e+05 -3.300000000000e+06 -6.000000000000e+06 -7.000000000000e+06 -2.376518242332e-10 3.434378214982e-09 1.079716677378e-08 -4.619744697914e-32 -1.020683044062e-31 -2.219760611854e-31 0.000000000000e+00 2.224073532765e-19 -2.320990726586e-19 5.433333333333e+06 3.315116890850e+06  9.128907401410e-18
1.000000000000e-01 0.000000000000e+00 5.000000000000e+05 -3.300000000000e+06 -6.000000000000e+06 -7.000000000000e+06 -1.192212992724e-10 3.484834944050e-09 1.046427370630e-08 -4.747628354610e-32 -1.042413890134e-31 -2.108251882065e-31 0.000000000000e+00 1.479734412754e-19 -1.572351921815e-19 5.433333333333e+06 3.315116890850e+06  8.942275406095e-18
1.500000000000e-01 0.000000000000e+00 4.997756814206e+05 -3.299995989322e+06 -5.999591485706e+06 -7.000396250893e+06 9.993939644792e-03 1.340645531955e-02 -2.739327086011e+02 -2.094205300338e-24 -3.559629828845e-21 4.985698383841e-22 0.000000000000e+00 7.949156174366e-09 -2.334135738260e-08 5.433327908640e+06 3.315297012953e+06  2.559718069429e-07
2.000000000000e-01 0.000000000000e+00 4.992202804224e+05 -3.299985314634e+06 -5.998517553093e+06 -7.001437472077e+06 3.035227083644e-02 3.633397396961e-02 -9.571287049288e+02 -7.329010118632e-24 -1.279050076728e-20 1.600259825089e-21 0.000000000000e+00 2.849616128502e-08 -8.384939174439e-08 5.433313446601e+06 3.315771265958e+06  9.065633943066e-07
2.750000000000e-01 0.000000000000e+00 4.986625809775e+05 -3.299972506231e+06 -5.997324837506e+06 -7.002591195594e+06 3.363652465207e-02 6.484498566934e-02 -1.643877806908e+03 -9.337077188005e-24 -2.304885222985e-20 2.428555887026e-21 0.000000000000e+00 5.106226818590e-08 -1.483707773071e-07 5.433296179777e+06 3.316298495504e+06  1.586179595991e-06
3.875000000000e-01 0.000000000000e+00 4.980829541312e+05 -3.299954491526e+06 -5.995877638663e+06 -7.003983261274e+06 4.048060757686e-02 7.931690362491e-02 -2.349941022010e+03 -7.107654955021e-24 -3.564644409544e-20 2.621356565620e-21 0.000000000000e+00 7.823458627210e-08 -2.220062570510e-07 5.433271797154e+06 3.316936901877e+06  2.336951606324e-06
5.562500000000e-01 0.000000000000e+00 4.974957853693e+05 -3.299922737435e+06 -5.993970228374e+06 -7.005793147015e+06 1.492506679448e-01 7.880691963037e-02 -3.033723208201e+03 1.001778332938e-23 -5.243966993416e-20 1.648820474756e-21 0.000000000000e+00 1.140943733239e-07 -3.111742717881e-07 5.433228704274e+06 3.317770954691e+06  3.189914368536e-06
8.093750000000e-01 0.000000000000e+00 4.969702356341e+05 -3.299866080407e+06 -5.991340309181e+06 -7.008250458952e+06 -2.525864964956e-01 2.468667594567e-01 -3.514219559909e+03 -6.009781891606e-23 -7.450854271719e-20 -1.531717566736e-21 0.000000000000e+00 1.659711400554e-07 -4.237074284383e-07 5.433152282846e+06 3.318910105315e+06  4.140297951355e-06
1.189062500000e+00 0.000000000000e+00 4.967406298629e+05 -3.299756922700e+06 -5.987746906253e+06 -7.011509741722e+06 -5.761558331337e-01 4.476449440201e-01 -3.329858672729e+03 -1.334238689381e-22 -1.021997711199e-19 -5.965730815041e-21 0.000000000000e+00 2.478503905332e-07 -5.691073417261e-07 5.433004523559e+06 3.320433406367e+06  5.129087275285e-06
1.758593750000e+00 0.000000000000e+00 4.972366147158e+05 -3.299619031091e+06 -5.983536982359e+06 -7.015299324841e+06 -5.759416902776e-01 4.074542835724e-01 -1.656616172667e+03 -8.748468783308e-23 -1.286042798752e-19 -8.538337695838e-21 0.000000000000e+00 3.844728650100e-07 -7.558255954780e-07 5.432818446097e+06 3.322216550146e+06  6.109186911274e-06
2.612890625000e+00 0.000000000000e+00 4.988999160201e+05 -3.299683143616e+06 -5.980560300377e+06 -7.018470952396e+06 -4.889604182342e-01 4.730283770887e-01 2.235795475663e+03 -1.046879799168e-22 -1.369134772963e-19 -5.245914167436e-21 0.000000000000e+00 6.087863062867e-07 -9.821228490996e-07 5.432904798796e+06 3.323685726016e+06  7.333897805444e-06
3.894335937500e+00 0.000000000000e+00 5.018399033470e+05 -3.300291066477e+06 -5.981678635766e+06 -7.019207588480e+06 -3.561355474520e-01 5.266101019813e-01 7.706244137024e+03 -1.337102788387e-22 -1.131206049045e-19 8.671585466521e-21 0.000000000000e+00 9.421863771229e-07 -1.224570031658e-06 5.433725763574e+06 3.323928552126e+06  9.144047690122e-06
5.816503906250e+00 0.000000000000e+00 5.055081730962e+05 -3.301430947021e+06 -5.987636440748e+06 -7.016729189919e+06 -2.716661659408e-01 5.495757314923e-01 1.264124034369e+04 -1.553800352935e-22 -6.356258118378e-20 3.513359933439e-20 0.000000000000e+00 1.372510269095e-06 -1.450354440271e-06 5.435265525896e+06 3.322584211148e+06  1.098500861391e-05
8.699755859375e+00 0.000000000000e+00 5.087234205060e+05 -3.302743393425e+06 -5.995176174516e+06 -7.013196198239e+06 -2.494465673443e-01 5.659276004907e-01 1.580420599105e+04 -1.653059954531e-22 -1.527147004360e-20 6.653547498902e-20 0.000000000000e+00 1.848523188622e-06 -1.651206157640e-06 5.437038588727e+06 3.320731674173e+06  1.238067592114e-05
1.302463378906e+01 0.000000000000e+00 5.107482205462e+05 -3.303650682986e+06 -6.000672897148e+06 -7.010469566765e+06 -2.475099253332e-01 5.666698364136e-01 1.636458087109e+04 -1.686087564888e-22 1.636998628424e-20 9.404499927521e-20 0.000000000000e+00 2.303854418093e-06 -1.813570354706e-06 5.438264382300e+06 3.319317036066e+06  1.246886929833e-05
1.951195068359e+01 0.000000000000e+00 5.118197466385e+05 -3.303982210509e+06 -6.003696987447e+06 -7.008457861389e+06 -2.438923630040e-01 5.595521373304e-01 1.476157838127e+04 -1.695111957750e-22 3.445551349637e-20 1.147537403403e-19 0.000000000000e+00 2.715424388437e-06 -1.933991233021e-06 5.438712353115e+06 3.318316709099e+06  1.116272381204e-05
2.250000000000e+01 0.000000000000e+00 5.122011676889e+05 -3.303980696613e+06 -6.004394769563e+06 -7.007755336651e+06 -2.437738611980e-01 5.465936027710e-01 1.394559632477e+04 -1.720689172167e-22 4.259234849697e-20 1.227221241204e-19 0.000000000000e+00 2.863696752726e-06 -1.973019999692e-06 5.438710267609e+06 3.317987496593e+06  1.053169804087e-05
2.300000000000e+01 0.000000000000e+00 5.129770743430e+05 -3.303379062875e+06 -5.963634616420e+06 -7.046698070645e+06 1.354819738860e-01 -3.518327385494e-01 2.259168169264e+04 7.469482039451e-22 -2.111280194706e-19 1.036198556408e-19 0.000000000000e+00 4.620858954872e-06 -4.386084159254e-06 5.437903916646e+06 3.336576505527e+06  2.311341677605e-05
2.350000000000e+01 0.000000000000e+00 6.012687162426e+05 -3.310960916381e+06 -5.992674696530e+06 -7.040740022409e+06 -1.898599078581e+01 1.603231410988e+01 1.259514772756e+05 -3.592977799897e-21 8.315429163627e-19 2.031199134012e-19 0.000000000000e+00 1.429168454000e-05 -1.145898779496e-05 5.448125211773e+06 3.338896865522e+06  9.529639824371e-05
2.425000000000e+01 0.000000000000e+00 6.125491141735e+05 -3.311510341800e+06 -6.037932528467e+06 -6.997059452251e+06 -8.742424085139e+00 3.662987317778e+00 6.552794707279e+04 -8.786889927560e-21 1.280316236647e-18 4.496721722634e-19 0.000000000000e+00 2.045458432327e-05 -1.250724386283e-05 5.448834107506e+06 3.313784702802e+06  4.996424887706e-05
2.537500000000e+01 0.000000000000e+00 5.977265692093e+05 -3.310197224917e+06 -6.030075831871e+06 -7.000920767307e+06 -5.729013295687e+00 5.099696272658e+00 4.432654338520e+04 -7.895770381722e-21 1.128690173151e-18 3.374789682233e-19 0.000000000000e+00 2.302377550008e-05 -1.289167963163e-05 5.447064608032e+06 3.314627343053e+06  3.385145987377e-05
2.706250000000e+01 0.000000000000e+00 5.916780487820e+05 -3.307436061688e+06 -6.023047975252e+06 -6.999527358740e+06 -5.260514014454e+00 5.209079368453e+00 3.448515419145e+04 -7.719918617029e-21 1.098824688515e-18 2.642406388837e-19 0.000000000000e+00 2.462965392366e-05 -1.315875428095e-05 5.443337131893e+06 3.314116288901e+06  2.635986597969e-05
2.959375000000e+01 0.000000000000e+00 5.877678286075e+05 -3.306117719092e+06 -6.019684899372e+06 -6.998865897701e+06 -5.299542975776e+00 5.186337266176e+00 2.867526812931e+04 -7.709663385961e-21 1.076677630498e-18 2.130252586619e-19 0.000000000000e+00 2.560201586381e-05 -1.336303748480e-05 5.441556172055e+06 3.313877261332e+06  2.195971531042e-05
3.339062500000e+01 0.000000000000e+00 5.856380249034e+05 -3.305041457030e+06 -6.016436455382e+06 -6.998828629094e+06 -5.345774957738e+00 5.151859780075e+00 2.488312203807e+04 -7.707704251195e-21 1.061797859779e-18 1.842668102830e-19 0.000000000000e+00 2.615533659909e-05 -1.356042872295e-05 5.440102180502e+06 3.313950505927e+06  1.903947529272e-05
3.908593750000e+01 0.000000000000e+00 5.847680614800e+05 -3.304337320315e+06 -6.014364885281e+06 -6.998752074816e+06 -5.296761980277e+00 4.955785530897e+00 2.075119709544e+04 -7.708343534376e-21 1.055504815121e-18 1.745802393939e-19 0.000000000000e+00 2.688247254240e-05 -1.360689768969e-05 5.439151426804e+06 3.313951688956e+06  1.590968320899e-05
4.762890625000e+01 0.000000000000e+00 5.855239415391e+05 -3.305192765173e+06 -6.015674952138e+06 -7.000054495161e+06 -5.281427843815e+00 4.922972898173e+00 1.817350358565e+04 -7.709065933921e-21 1.062404729314e-18 1.910852319548e-19 0.000000000000e+00 2.740559203415e-05 -1.357641868258e-05 5.440307404157e+06 3.314340178075e+06  1.401142869756e-05
6.044335937500e+01 0.000000000000e+00 5.867909719878e+05 -3.307617307911e+06 -6.019285305624e+06 -7.003847839308e+06 -5.255041536177e+00 4.892694194732e+00 1.715042240400e+04 -7.709218404997e-21 1.072463524286e-18 2.158378761130e-19 0.000000000000e+00 2.759240671409e-05 -1.351291106098e-05 5.443583484281e+06 3.315598865667e+06  1.326726077400e-05
7.966503906250e+01 0.000000000000e+00 5.879901389266e+05 -3.311300856383e+06 -6.024636526473e+06 -7.009744185462e+06 -5.242528471845e+00 4.889950277226e+00 1.650120877611e+04 -7.709266900983e-21 1.081594557169e-18 2.397140182140e-19 0.000000000000e+00 2.768153416983e-05 -1.340469951456e-05 5.448560522772e+06 3.317585293285e+06  1.280408937504e-05
9.950000000000e+01 0.000000000000e+00 5.891423686331e+05 -3.314817513630e+06 -6.029977770962e+06 -7.015140907019e+06 -5.231731474862e+00 4.888304362171e+00 1.615564630466e+04 -7.709313176932e-21 1.090425330727e-18 2.626045114076e-19 0.000000000000e+00 2.774160647742e-05 -1.328659841030e-05 5.453312063870e+06 3.319382538444e+06  1.259677958149e-05
1.000000000000e+02 0.000000000000e+00 6.423533897413e+05 -3.319758815611e+06 -6.037733217089e+06 -7.022430330821e+06 -2.904674938158e+01 2.208050144048e+01 4.758658125790e+04 -1.225117928517e-20 1.748626341142e-18 2.448599111324e-19 0.000000000000e+00 3.991633339739e-05 -2.048816016582e-05 5.459974121174e+06 3.322677873848e+06  3.602437116529e-05
1.005000000000e+02 0.000000000000e+00 6.911200670479e+05 -3.325441888596e+06 -6.058419261411e+06 -7.019099272049e+06 -6.101969913121e+01 4.194929078144e+01 5.844378258937e+04 -1.717224256720e-20 2.586204072881e-18 1.349396131840e-19 0.000000000000e+00 5.693245873684e-05 -2.886692883689e-05 5.467653474019e+06 3.320818450076e+06  4.472770231215e-05
1.012500000000e+02 0.000000000000e+00 6.847993924288e+05 -3.325470185590e+06 -6.058800710863e+06 -7.018790883046e+06 -5.982760125629e+01 4.208602374982e+01 4.499022932544e+04 -1.737277865275e-20 2.609644459864e-18 8.767821333008e-20 0.000000000000e+00 5.943583948130e-05 -2.931089255937e-05 5.467687259833e+06 3.320048148887e+06  3.483140499520e-05
1.023750000000e+02 0.000000000000e+00 6.894398323628e+05 -3.326005824269e+06 -6.060012636058e+06 -7.019214888179e+06 -5.884017325670e+01 4.145284737019e+01 3.914243621962e+04 -1.738929851472e-20 2.654681959985e-18 1.492462996529e-19 0.000000000000e+00 6.049406616458e-05 -2.936439267247e-05 5.468411116169e+06 3.319928328299e+06  3.060695867359e-05
1.040625000000e+02 0.000000000000e+00 6.991793201985e+05 -3.327730425979e+06 -6.063132350698e+06 -7.021356227985e+06 -5.809339752021e+01 4.142254281192e+01 3.642027849252e+04 -1.745918313215e-20 2.723844283168e-18 2.815355626613e-19 0.000000000000e+00 6.088717023016e-05 -2.924570703405e-05 5.470739668220e+06 3.320500482206e+06  2.870861258639e-05
1.065937500000e+02 0.000000000000e+00 7.111468683265e+05 -3.331372758672e+06 -6.069370355093e+06 -7.026238683978e+06 -5.772674724509e+01 4.110464456623e+01 3.497623143936e+04 -1.752632332301e-20 2.811350579111e-18 4.584264756254e-19 0.000000000000e+00 6.102480858817e-05 -2.899792404864e-05 5.475660599248e+06 3.322017616866e+06  2.779553099049e-05
1.103906250000e+02 0.000000000000e+00 7.250071249492e+05 -3.338310718201e+06 -6.080849471496e+06 -7.035957612844e+06 -5.724667626571e+01 3.948871063207e+01 3.483788275489e+04 -1.757680438545e-20 2.916211095065e-18 6.789396036606e-19 0.000000000000e+00 6.092257398425e-05 -2.861667449107e-05 5.485039267514e+06 3.325178568883e+06  2.790924626621e-05
1.160859375000e+02 0.000000000000e+00 7.404271278511e+05 -3.350951199732e+06 -6.100891408125e+06 -7.054526036552e+06 -5.675950989515e+01 3.820388078530e+01 3.586504884846e+04 -1.759896359509e-20 3.034960340544e-18 9.411004680423e-19 0.000000000000e+00 6.063209617824e-05 -2.797255534190e-05 5.502122881470e+06 3.331349168479e+06  2.897660721227e-05
1.246289062500e+02 0.000000000000e+00 7.546203420006e+05 -3.367264038696e+06 -6.126329806882e+06 -7.078900905917e+06 -5.663680584457e+01 3.801587137756e+01 3.761286549766e+04 -1.760685263895e-20 3.144755152776e-18 1.193629780640e-18 0.000000000000e+00 6.028298470142e-05 -2.710234622167e-05 5.524164917165e+06 3.339503873319e+06  3.067982891370e-05
1.374433593750e+02 0.000000000000e+00 7.600858588579e+05 -3.374677226473e+06 -6.137824049846e+06 -7.090044337465e+06 -5.657134893817e+01 3.790543804052e+01 3.834460374310e+04 -1.760768581012e-20 3.187075427018e-18 1.294337165084e-18 0.000000000000e+00 6.014413828538e-05 -2.674734741182e-05 5.534181871261e+06 3.343237838739e+06  3.142824737969e-05
1.565000000000e+02 0.000000000000e+00 7.614927678909e+05 -3.377607910016e+06 -6.142369606236e+06 -7.094447625549e+06 -5.656115975051e+01 3.790035069488e+01 3.841437033868e+04 -1.760775781815e-20 3.197941102007e-18 1.321483009034e-18 0.000000000000e+00 6.013981798551e-05 -2.662795441979e-05 5.538141713934e+06 3.344705612877e+06  3.157683456547e-05
1.570000000000e+02 0.000000000000e+00 7.753431146145e+05 -3.379033945717e+06 -6.145380222660e+06 -7.095791419617e+06 -6.405511665377e+01 4.237267036960e+01 4.413436953916e+04 -1.875816938634e-20 3.396516227690e-18 1.298259925110e-18 0.000000000000e+00 6.398132660844e-05 -2.868849644683e-05 5.540068529331e+06 3.345289701796e+06  3.568757529670e-05
1.575000000000e+02 0.000000000000e+00 7.898247931377e+05 -3.380604136731e+06 -6.149642763883e+06 -7.096324048118e+06 -7.259034216299e+01 4.747459064823e+01 4.791967277620e+04 -2.007848485052e-20 3.617285401994e-18 1.276936970218e-18 0.000000000000e+00 6.832413319741e-05 -3.085972937056e-05 5.542190316244e+06 3.345454576573e+06  3.857636334425e-05
1.582500000000e+02 0.000000000000e+00 7.926941895551e+05 -3.380792997326e+06 -6.150850691127e+06 -7.095680893106e+06 -7.156060447082e+01 4.734461190515e+01 4.539272811597e+04 -2.054184688895e-20 3.645461119180e-18 1.304973773598e-18 0.000000000000e+00 6.886958323242e-05 -3.093959207546e-05 5.542441527187e+06 3.345046999561e+06  3.690374925160e-05
1.593750000000e+02 0.000000000000e+00 7.973080155455e+05 -3.381111230736e+06 -6.151725558608e+06 -7.095776763199e+06 -7.098917698205e+01 4.701560431672e+01 4.422558284373e+04 -2.061178341385e-20 3.673902169215e-18 1.358628910532e-18 0.000000000000e+00 6.904426401210e-05 -3.090594344322e-05 5.542871184181e+06 3.344997152864e+06  3.614276977198e-05
1.610625000000e+02 0.000000000000e+00 8.025618616059e+05 -3.381797995703e+06 -6.153133725668e+06 -7.096463988582e+06 -7.064185562936e+01 4.692995126126e+01 4.359322875043e+04 -2.065200728594e-20 3.708112962757e-18 1.426996642802e-18 0.000000000000e+00 6.910245097152e-05 -3.082717827924e-05 5.543798569984e+06 3.345169607993e+06  3.576507975921e-05
1.635937500000e+02 0.000000000000e+00 8.071322957279e+05 -3.382829369907e+06 -6.155003740425e+06 -7.097742258628e+06 -7.053961065221e+01 4.691579895988e+01 4.326571833940e+04 -2.067619686780e-20 3.740415870104e-18 1.492226267094e-18 0.000000000000e+00 6.911383991268e-05 -3.073291599711e-05 5.545191789653e+06 3.345557950657e+06  3.560359408306e-05
1.673906250000e+02 0.000000000000e+00 8.101270201946e+05 -3.383914473560e+06 -6.156838515149e+06 -7.099222221039e+06 -7.047795334717e+01 4.668070186324e+01 4.313278910857e+04 -2.068711248741e-20 3.762854850119e-18 1.538559800318e-18 0.000000000000e+00 6.911161713066e-05 -3.065355255906e-05 5.546658403249e+06 3.346032659426e+06  3.556568169265e-05
1.730859375000e+02 0.000000000000e+00 8.115843546324e+05 -3.384738507441e+06 -6.158174386987e+06 -7.100403372620e+06 -7.044171684353e+01 4.656159605158e+01 4.309669111757e+04 -2.068936180040e-20 3.774115922630e-18 1.562771471306e-18 0.000000000000e+00 6.910964430778e-05 -3.060427718614e-05 5.547772089016e+06 3.346419834774e+06  3.557535572556e-05
1.816289062500e+02 0.000000000000e+00 8.121125592842e+05 -3.385200591936e+06 -6.158905630762e+06 -7.101083127718e+06 -7.043688016568e+01 4.655149610346e+01 4.309068643121e+04 -2.068966575039e-20 3.778242084473e-18 1.572095106708e-18 0.000000000000e+00 6.910973573748e-05 -3.058087889078e-05 5.548396450139e+06 3.346644736465e+06  3.558864038420e-05
1.944433593750e+02 0.000000000000e+00 8.122564412879e+05 -3.385394919983e+06 -6.159209375362e+06 -7.101372806023e+06 -7.043504823613e+01 4.654842313219e+01 4.308913759174e+04 -2.068968749934e-20 3.779364614982e-18 1.574767133699e-18 0.000000000000e+00 6.911043073099e-05 -3.057226357122e-05 5.548659033789e+06 3.346740974286e+06  3.559448450891e-05
2.125000000000e+02 0.000000000000e+00 8.122876182291e+05 -3.385455965961e+06 -6.159304459415e+06 -7.101464127145e+06 -7.043480487877e+01 4.654826634624e+01 4.308793331919e+04 -2.068968932737e-20 3.779606543034e-18 1.575367822158e-18 0.000000000000e+00 6.911090250044e-05 -3.056982258160e-05 5.548741517507e+06 3.346771311344e+06  3.559579218700e-05
2.130000000000e+02 0.000000000000e+00 8.247158656886e+05 -3.386762955744e+06 -6.162249310925e+06 -7.102510607423e+06 -7.734497015593e+01 5.064437904439e+01 4.775626774521e+04 -2.174668101852e-20 3.961605128258e-18 1.554538424595e-18 0.000000000000e+00 7.264946307718e-05 -3.243308857447e-05 5.550507624697e+06 3.347228737506e+06  3.896750070282e-05
2.135000000000e+02 0.000000000000e+00 8.382072009034e+05 -3.388187708143e+06 -6.166106605780e+06 -7.103003212177e+06 -8.516565731024e+01 5.538898115082e+01 5.087977532052e+04 -2.298588108840e-20 4.161626580979e-18 1.539720172983e-18 0.000000000000e+00 7.656152272598e-05 -3.436890911595e-05 5.552432508700e+06 3.347386701077e+06  4.136581091614e-05
2.142500000000e+02 0.000000000000e+00 8.417805817097e+05 -3.388379666225e+06 -6.167135139328e+06 -7.102548712443e+06 -8.412716479256e+01 5.526359235434e+01 4.887469766231e+04 -2.347863892726e-20 4.188524992559e-18 1.574347134223e-18 0.000000000000e+00 7.696970553075e-05 -3.441118455701e-05 5.552687839332e+06 3.347078182024e+06  4.006009876327e-05
2.153750000000e+02 0.000000000000e+00 8.466582537185e+05 -3.388695728088e+06 -6.167974230387e+06 -7.102673666330e+06 -8.356509382080e+01 5.493455158252e+01 4.799820100531e+04 -2.355681855721e-20 4.216914634672e-18 1.630360074289e-18 0.000000000000e+00 7.708103009885e-05 -3.436361654295e-05 5.553114541602e+06 3.347051476931e+06  3.950531121241e-05
2.170625000000e+02 0.000000000000e+00 8.513884421819e+05 -3.389267881147e+06 -6.169160562339e+06 -7.103233191944e+06 -8.326348301413e+01 5.483818969961e+01 4.754092467752e+04 -2.359346132713e-20 4.247142394575e-18 1.691315534161e-18 0.000000000000e+00 7.711034649868e-05 -3.428984280455e-05 5.553887211810e+06 3.347192422231e+06  3.924456447974e-05
2.195937500000e+02 0.000000000000e+00 8.548035274532e+05 -3.389981772076e+06 -6.170470971589e+06 -7.104101778710e+06 -8.319438038021e+01 5.484966863458e+01 4.731694894082e+04 -2.361129526118e-20 4.271124557400e-18 1.739694551242e-18 0.000000000000e+00 7.711397696597e-05 -3.422042481861e-05 5.554851507458e+06 3.347454818052e+06  3.913860340859e-05
2.233906250000e+02 0.000000000000e+00 8.566370428260e+05 -3.390606546021e+06 -6.171535109748e+06 -7.104946072819e+06 -8.316113931132e+01 5.471798362823e+01 4.723112168968e+04 -2.361798457622e-20 4.284848674363e-18 1.767934376757e-18 0.000000000000e+00 7.711308912950e-05 -3.417342203695e-05 5.555695909529e+06 3.347724791218e+06  3.911191767333e-05
2.290859375000e+02 0.000000000000e+00 8.573697699091e+05 -3.391003248954e+06 -6.172180699542e+06 -7.105512217284e+06 -8.314341969094e+01 5.465818836337e+01 4.720791107101e+04 -2.361912407625e-20 4.290515801668e-18 1.780081774758e-18 0.000000000000e+00 7.711303657858e-05 -3.414947020994e-05 5.556232055260e+06 3.347910108567e+06  3.911288836674e-05
2.376289062500e+02 0.000000000000e+00 8.575892828352e+05 -3.391189802506e+06 -6.172476615305e+06 -7.105785950650e+06 -8.314139681298e+01 5.465386497544e+01 4.720309614398e+04 -2.361925079851e-20 4.292232979032e-18 1.783953924947e-18 0.000000000000e+00 7.711356643655e-05 -3.414000453006e-05 5.556484122821e+06 3.348000600912e+06  3.911662026330e-05
2.504433593750e+02 0.000000000000e+00 8.576391389085e+05 -3.391255923946e+06 -6.172580165489e+06 -7.105884317239e+06 -8.314076642365e+01 5.465278288881e+01 4.720174816027e+04 -2.361925837359e-20 4.292622521868e-18 1.784880007688e-18 0.000000000000e+00 7.711399211937e-05 -3.413707710621e-05 5.556573468891e+06 3.348033255965e+06  3.911802976603e-05
2.665000000000e+02 0.000000000000e+00 8.576491197508e+05 -3.391272991964e+06 -6.172606844639e+06 -7.105909756257e+06 -8.314066708543e+01 5.465269010686e+01 4.720114788977e+04 -2.361925912481e-20 4.292700308168e-18 1.785070286954e-18 0.000000000000e+00 7.711418112832e-05 -3.413637587215e-05 5.556596530953e+06 3.348041693667e+06  3.911821515566e-05
2.670000000000e+02 0.000000000000e+00 8.723236059483e+05 -3.392812025023e+06 -6.176250661630e+06 -7.106965278395e+06 -9.135989756992e+01 5.957252665695e+01 5.211295549289e+04 -2.489654391117e-20 4.507247610627e-18 1.763724416964e-18 0.000000000000e+00 8.128390980922e-05 -3.629542291150e-05 5.558675988349e+06 3.348506335914e+06  4.269787357384e-05
2.675000000000e+02 0.000000000000e+00 8.888792187599e+05 -3.394484318255e+06 -6.180806773026e+06 -7.107512363271e+06 -1.006734451724e+02 6.538873172290e+01 5.537253880120e+04 -2.643313765571e-20 4.742120304249e-18 1.754602043702e-18 0.000000000000e+00 8.582536800006e-05 -3.851486805479e-05 5.560934484851e+06 3.348682586542e+06  4.523482261219e-05
2.682500000000e+02 0.000000000000e+00 8.944419561272e+05 -3.394739314349e+06 -6.181957436787e+06 -7.107123952329e+06 -9.927950947658e+01 6.524628958510e+01 5.331561590380e+04 -2.712179471255e-20 4.776288367592e-18 1.808132309707e-18 0.000000000000e+00 8.620683009479e-05 -3.852668770397e-05 5.561273567822e+06 3.348385660129e+06  4.390966634612e-05
2.693750000000e+02 0.000000000000e+00 9.009349334598e+05 -3.395130522314e+06 -6.182977404996e+06 -7.107297231770e+06 -9.857658746988e+01 6.482113242822e+01 5.246107928749e+04 -2.722969272941e-20 4.812474884372e-18 1.881878884812e-18 0.000000000000e+00 8.629031450681e-05 -3.845219440126e-05 5.561801719693e+06 3.348369165340e+06  4.338520658802e-05
2.710625000000e+02 0.000000000000e+00 9.062441932479e+05 -3.395721788025e+06 -6.184221625269e+06 -7.107857384348e+06 -9.824892684541e+01 6.469091144928e+01 5.203339190918e+04 -2.727119618181e-20 4.845888659489e-18 1.949688591380e-18 0.000000000000e+00 8.630524569568e-05 -3.836737446082e-05 5.562600265881e+06 3.348509367578e+06  4.315192766267e-05
2.735937500000e+02 0.000000000000e+00 9.094052934032e+05 -3.396335848288e+06 -6.185363193390e+06 -7.108589950460e+06 -9.819104977428e+01 6.472009131269e+01 5.183837580623e+04 -2.728751005156e-20 4.867973576796e-18 1.994179308809e-18 0.000000000000e+00 8.630553600130e-05 -3.830405090573e-05 5.563429664046e+06 3.348729242713e+06  4.306229213576e-05
2.773906250000e+02 0.000000000000e+00 9.107941916766e+05 -3.396783852005e+06 -6.186131676136e+06 -7.109189865824e+06 -9.816877219546e+01 6.462819496389e+01 5.176995743499e+04 -2.729258297066e-20 4.878363439342e-18 2.015490832511e-18 0.000000000000e+00 8.630535499874e-05 -3.826936304340e-05 5.564035131322e+06 3.348920495534e+06  4.303942601061e-05
2.830859375000e+02 0.000000000000e+00 9.112498670233e+05 -3.397021538334e+06 -6.186519985422e+06 -7.109527572454e+06 -9.815800071073e+01 6.459102431010e+01 5.175244098420e+04 -2.729329628427e-20 4.881891529055e-18 2.023032822594e-18 0.000000000000e+00 8.630595984164e-05 -3.825482824179e-05 5.564356365403e+06 3.349030876174e+06  4.303769603348e-05
2.916289062500e+02 0.000000000000e+00 9.113628852063e+05 -3.397115362187e+06 -6.186669197022e+06 -7.109664855243e+06 -9.815695276759e+01 6.458874450782e+01 5.174866205756e+04 -2.729336172970e-20 4.882776991106e-18 2.025025875709e-18 0.000000000000e+00 8.630652966118e-05 -3.825004084743e-05 5.564483138151e+06 3.349076212026e+06  4.303864498326e-05
3.044433593750e+02 0.000000000000e+00 9.113844043835e+05 -3.397143527861e+06 -6.186713403876e+06 -7.109706658847e+06 -9.815668125944e+01 6.458827119152e+01 5.174768473468e+04 -2.729336501019e-20 4.882945397220e-18 2.025425816504e-18 0.000000000000e+00 8.630680756785e-05 -3.824879149596e-05 5.564521196861e+06 3.349090075194e+06  4.303896302657e-05
3.165000000000e+02 0.000000000000e+00 9.113889398240e+05 -3.397149181693e+06 -6.186722322201e+06 -7.109715006152e+06 -9.815661740313e+01 6.458814875492e+01 5.174733471655e+04 -2.729336584458e-20 4.882981009751e-18 2.025509742802e-18 0.000000000000e+00 8.630689737266e-05 -3.824853986031e-05 5.564528836682e+06 3.349092832735e+06  4.303892761866e-05
3.170000000000e+02 0.000000000000e+00 9.271386455674e+05 -3.398776260101e+06 -6.190714797503e+06 -7.110689522472e+06 -1.069413214654e+02 6.992904127688e+01 5.639120579068e+04 -2.869170813174e-20 5.109902025503e-18 2.007806462846e-18 0.000000000000e+00 9.069761058800e-05 -4.048758016558e-05 5.566726860025e+06 3.349526404216e+06  4.645597933765e-05
3.175000000000e+02 0.000000000000e+00 9.456218665482e+05 -3.400540152005e+06 -6.195534491373e+06 -7.111249291850e+06 -1.169233738678e+02 7.637830510685e+01 5.949774336305e+04 -3.041664016621e-20 5.357852124456e-18 2.008747162690e-18 0.000000000000e+00 9.540858778654e-05 -4.276529050453e-05 5.569107978409e+06 3.349711127789e+06  4.890560409566e-05
3.182500000000e+02 0.000000000000e+00 9.527899166870e+05 -3.400827300548e+06 -6.196706727348e+06 -7.110934340707e+06 -1.152720184879e+02 7.628159951582e+01 5.760365501747e+04 -3.124827014004e-20 5.396488591003e-18 2.076991768865e-18 0.000000000000e+00 9.572444202710e-05 -4.274452386804e-05 5.569489456201e+06 3.349444532212e+06  4.770352217362e-05
3.193750000000e+02 0.000000000000e+00 9.598431984984e+05 -3.401207622473e+06 -6.197717409595e+06 -7.111083810272e+06 -1.145530874772e+02 7.581978256620e+01 5.685294814439e+04 -3.136806298023e-20 5.434622826529e-18 2.156174598280e-18 0.000000000000e+00 9.577839372947e-05 -4.265800986216e-05 5.570002947447e+06 3.349423842966e+06  4.725628264905e-05
3.210625000000e+02 0.000000000000e+00 9.646375259790e+05 -3.401690038386e+06 -6.198759384966e+06 -7.111514243828e+06 -1.142660250265e+02 7.567941752441e+01 5.649818633362e+04 -3.140578760573e-20 5.464457194675e-18 2.216874838714e-18 0.000000000000e+00 9.578490315049e-05 -4.258179490612e-05 5.570654555727e+06 3.349527308464e+06  4.706799688590e-05
3.235937500000e+02 0.000000000000e+00 9.669970030412e+05 -3.402116262745e+06 -6.199563665736e+06 -7.112010705635e+06 -1.142269003799e+02 7.571372300609e+01 5.635076839919e+04 -3.141784649594e-20 5.480890123064e-18 2.249901402204e-18 0.000000000000e+00 9.578514162565e-05 -4.253564528281e-05 5.571230211372e+06 3.349674679561e+06  4.700002884564e-05
3.273906250000e+02 0.000000000000e+00 9.678583785096e+05 -3.402381460933e+06 -6.200021831905e+06 -7.112362533740e+06 -1.142144940336e+02 7.566044154066e+01 5.630428105565e+04 -3.142099927075e-20 5.487335433483e-18 2.263082518538e-18 0.000000000000e+00 9.578580381640e-05 -4.251465440034e-05 5.571588608859e+06 3.349786404168e+06  4.698300728168e-05
3.330859375000e+02 0.000000000000e+00 9.680952395684e+05 -3.402501564567e+06 -6.200218788132e+06 -7.112532435991e+06 -1.142089774591e+02 7.564108510648e+01 5.629329047025e+04 -3.142137214719e-20 5.489171803712e-18 2.266999300388e-18 0.000000000000e+00 9.578653260876e-05 -4.250723965005e-05 5.571750929563e+06 3.349841835216e+06  4.698075714300e-05
3.416289062500e+02 0.000000000000e+00 9.681450390904e+05 -3.402542256623e+06 -6.200283668564e+06 -7.112591809985e+06 -1.142085130311e+02 7.564006319378e+01 5.629101903500e+04 -3.142140106614e-20 5.489562579712e-18 2.267877649869e-18 0.000000000000e+00 9.578692601962e-05 -4.250515502203e-05 5.571805911724e+06 3.349861417054e+06  4.698073983824e-05
3.544433593750e+02 0.000000000000e+00 9.681531873273e+05 -3.402552840875e+06 -6.200300317036e+06 -7.112607483046e+06 -1.142084100437e+02 7.563988222070e+01 5.629050064296e+04 -3.142140230995e-20 5.489626443611e-18 2.268029202333e-18 0.000000000000e+00 9.578706693204e-05 -4.250468528971e-05 5.571820213652e+06 3.349866608447e+06  4.698075447493e-05