 TITLE = "Time curves in points"
 VARIABLES = "TIME"  "STRAIN_PLS"  "PRESSURE1"  "STRESS_XX"  "STRESS_YY"  "STRESS_ZZ"  "STRESS_XY"  "STRESS_XZ"  "STRESS_YZ"  "VELOCITY_X1"  "VELOCITY_Y1"  "VELOCITY_Z1"  "DISPLACEMENT_X1"  "DISPLACEMENT_Y1"  "DISPLACEMENT_Z1"  p_(1st_Invariant)  q_(2nd_Invariant)   Effective_Strain
 ZONE T="POINT=POINTANCHOR_TOP"
0.000000000000e+00 0.000000000000e+00 5.000000000000e+05 -3.300000000000e+06 -6.000000000000e+06 -7.000000000000e+06 0.000000000000e+00 0.000000000000e+00 0.000000000000e+00 0.000000000000e+00 0.000000000000e+00 0.000000000000e+00 0.000000000000e+00 0.000000000000e+00 0.000000000000e+00 5.433333333333e+06 3.315116890850e+06  0.000000000000e+00
5.000000000000e-02 0.000000000000e+00 5.000000000000e+05 -3.300000000000e+06 -6.000000000000e+06 -7.000000000000e+06 4.812701175235e-09 -3.929312127529e-10 1.584461676129e-09 -1.548038064903e-32 -1.645791339712e-31 1.819192738002e-31 0.000000000000e+00 -4.254321270317e-21 1.779277951647e-20 5.433333333333e+06 3.315116890850e+06  5.208158422099e-18
1.000000000000e-01 0.000000000000e+00 5.000000000000e+05 -3.300000000000e+06 -6.000000000000e+06 -7.000000000000e+06 4.761030585776e-09 -3.950729395442e-10 1.453185009302e-09 -1.611423892234e-32 -1.643863463516e-31 1.862949413052e-31 0.000000000000e+00 -4.653750741245e-20 8.447214762625e-20 5.433333333333e+06 3.315116890850e+06  5.111295417775e-18
1.500000000000e-01 0.000000000000e+00 4.997751650998e+05 -3.299990746821e+06 -5.999581335311e+06 -7.000390383898e+06 -2.190397900588e-02 -2.830052479037e-02 -2.773989719123e+02 -2.255922396924e-24 3.645112966400e-21 -4.721687853678e-22 0.000000000000e+00 -7.763717078224e-09 2.327993637232e-08 5.433320822010e+06 3.315295313617e+06  2.585565509577e-07
2.000000000000e-01 0.000000000000e+00 4.992184197767e+05 -3.299966461040e+06 -5.998480835832e+06 -7.001416689657e+06 -8.584264187377e-02 -1.035567397023e-01 -9.695715352218e+02 -7.812927197885e-24 1.308726612996e-20 -1.498172897818e-21 0.000000000000e+00 -2.783551901274e-08 8.363424646980e-08 5.433287995510e+06 3.315765341003e+06  9.158465156538e-07
2.750000000000e-01 0.000000000000e+00 4.986594706373e+05 -3.299938438798e+06 -5.997258143997e+06 -7.002553784945e+06 -7.167021202280e-02 -9.633714180415e-02 -1.665523716254e+03 -5.119203996391e-24 2.343287065746e-20 -2.464250174635e-21 0.000000000000e+00 -4.990361487631e-08 1.479946872909e-07 5.433250122580e+06 3.316287831530e+06  1.602373628061e-06
3.875000000000e-01 0.000000000000e+00 4.980768873322e+05 -3.299902809378e+06 -5.995775792976e+06 -7.003927440791e+06 -6.631917452294e-02 -9.981176926884e-02 -2.382363411883e+03 -9.837807821929e-25 3.614243777718e-20 -2.702887388012e-21 0.000000000000e+00 -7.651235502852e-08 2.214549364149e-07 5.433202014382e+06 3.316921269244e+06  2.361142039167e-06
5.562500000000e-01 0.000000000000e+00 4.974858623335e+05 -3.299848501908e+06 -5.993820281215e+06 -7.005716907231e+06 -1.291193668161e-01 -7.619806598038e-02 -3.077934920951e+03 3.579256829720e-23 5.300396152065e-20 -1.672662213503e-21 0.000000000000e+00 -1.117061779445e-07 3.104312995708e-07 5.433128563451e+06 3.317750458452e+06  3.223509708413e-06
8.093750000000e-01 0.000000000000e+00 4.969631053492e+05 -3.299757992277e+06 -5.991109554708e+06 -7.008151122490e+06 -3.311914561908e-01 4.905235064189e-02 -3.569287559614e+03 1.031195193575e-22 7.610687800091e-20 1.098079610759e-21 0.000000000000e+00 -1.627544021681e-07 4.227490186751e-07 5.433006223158e+06 3.318885568251e+06  4.185931798589e-06
1.189062500000e+00 0.000000000000e+00 4.967158727061e+05 -3.299616905163e+06 -5.987426331533e+06 -7.011403241889e+06 -4.224205071480e-01 1.141250674400e-01 -3.386372852614e+03 1.275901969889e-22 1.048053557063e-19 5.277726699378e-21 0.000000000000e+00 -2.436743020672e-07 5.679183139789e-07 5.432815492862e+06 3.320412236460e+06  5.185197054808e-06
1.758593750000e+00 0.000000000000e+00 4.971573535795e+05 -3.299464639065e+06 -5.983150487622e+06 -7.015214707355e+06 -3.358940684099e-01 9.373434967436e-02 -1.703340814153e+03 1.309974809918e-22 1.313152487714e-19 7.891749896505e-21 0.000000000000e+00 -3.792860778693e-07 7.544198172997e-07 5.432609944681e+06 3.322208773213e+06  6.172204418012e-06
2.612890625000e+00 0.000000000000e+00 4.987494725176e+05 -3.299538307075e+06 -5.980166272487e+06 -7.018424715786e+06 -2.505825215284e-01 1.606949414795e-01 2.189938561183e+03 1.424840952841e-22 1.386287012452e-19 4.397031145388e-21 0.000000000000e+00 -6.026646248419e-07 9.805670630264e-07 5.432709765116e+06 3.323694614425e+06  7.389959988456e-06
3.894335937500e+00 0.000000000000e+00 5.015806922694e+05 -3.300205199106e+06 -5.981395599994e+06 -7.019230834974e+06 -2.378837209310e-01 4.345945370991e-02 7.636462323343e+03 1.135882207328e-22 1.116414434655e-19 -8.472388364470e-21 0.000000000000e+00 -9.352578414554e-07 1.223037653459e-06 5.433610544691e+06 3.323957394008e+06  9.155549199339e-06
5.816503906250e+00 0.000000000000e+00 5.051056537279e+05 -3.301445867124e+06 -5.987541996395e+06 -7.016871133126e+06 -1.253598388701e-01 -7.233223949102e-02 1.254832341502e+04 8.608649008849e-23 5.731971349254e-20 -3.200725052665e-20 0.000000000000e+00 -1.364568594462e-06 1.448930174306e-06 5.435286332215e+06 3.322646577442e+06  1.094682893219e-05
8.699755859375e+00 0.000000000000e+00 5.081803815919e+05 -3.302900881874e+06 -5.995341351569e+06 -7.013513520581e+06 2.323574130683e-03 -9.218211424534e-02 1.572900968688e+04 7.134437489353e-23 4.996691898913e-21 -6.031665000431e-20 0.000000000000e+00 -1.838977907965e-06 1.649507326428e-06 5.437251918008e+06 3.320846338933e+06  1.233463259163e-05
1.302463378906e+01 0.000000000000e+00 5.100974653650e+05 -3.303978336396e+06 -6.001142928303e+06 -7.011001452951e+06 8.553705512981e-02 -5.609654019421e-02 1.635367815333e+04 6.577376269800e-23 -2.915662584739e-20 -8.603577772650e-20 0.000000000000e+00 -2.292175232246e-06 1.810777094410e-06 5.438707572550e+06 3.319498163808e+06  1.246380175477e-05
1.951195068359e+01 0.000000000000e+00 5.110920458481e+05 -3.304441858055e+06 -6.004393637946e+06 -7.009166097906e+06 4.595561978848e-02 -9.398435483348e-02 1.480425602346e+04 6.746620188197e-23 -4.912146228939e-20 -1.061783992505e-19 0.000000000000e+00 -2.701346999361e-06 1.929578698749e-06 5.439333864636e+06 3.318554203215e+06  1.119718216844e-05
2.250000000000e+01 0.000000000000e+00 5.114395823402e+05 -3.304471069031e+06 -6.005135294422e+06 -7.008513360267e+06 1.154509502585e-01 -5.604708646205e-02 1.399664761954e+04 6.080495581090e-23 -5.770983054942e-20 -1.137090684164e-19 0.000000000000e+00 -2.848462113043e-06 1.968018730877e-06 5.439373241240e+06 3.318241969286e+06  1.057281304941e-05
2.300000000000e+01 0.000000000000e+00 5.116279245242e+05 -3.303678683737e+06 -5.963698590714e+06 -7.047523722662e+06 -1.579010753041e-01 -6.773580551863e-01 2.252958087063e+04 -3.015652354193e-23 1.965073315438e-19 -9.090085513284e-20 0.000000000000e+00 -4.590824937469e-06 4.377294321102e-06 5.438300332371e+06 3.336900057668e+06  2.317698150422e-05
2.350000000000e+01 0.000000000000e+00 5.970909334895e+05 -3.312487289253e+06 -5.994704080823e+06 -7.043343745558e+06 1.971817222340e+01 -1.728629938524e+01 1.255087535514e+05 -6.170729838573e-21 -9.426947194846e-19 -1.544892843159e-19 0.000000000000e+00 -1.422539041541e-05 1.144234277625e-05 5.450178371878e+06 3.339740757037e+06  9.497729355091e-05
2.425000000000e+01 0.000000000000e+00 6.122208588714e+05 -3.313554536508e+06 -6.041068930405e+06 -6.999990743261e+06 1.766803128966e+01 -3.654322974542e+01 6.799452360489e+04 -1.267688415012e-20 -1.389710912745e-18 -4.580224324091e-19 0.000000000000e+00 -2.032670859590e-05 1.245485252617e-05 5.451538070058e+06 3.314846697803e+06  5.181151411507e-05
2.537500000000e+01 0.000000000000e+00 5.952889254955e+05 -3.311254397055e+06 -6.031410027702e+06 -7.002679525611e+06 1.753734704869e+01 -3.357227861980e+01 4.460202797198e+04 -1.139653194844e-20 -1.265174823837e-18 -3.070318484698e-19 0.000000000000e+00 -2.284100731693e-05 1.278725415508e-05 5.448447983456e+06 3.315204867444e+06  3.404706966070e-05
2.706250000000e+01 0.000000000000e+00 5.890745006029e+05 -3.308786029268e+06 -6.024322400003e+06 -7.002246980752e+06 1.594147137842e+01 -3.451561757675e+01 3.642912343135e+04 -1.105487198352e-20 -1.206830904429e-18 -2.273866805114e-19 0.000000000000e+00 -2.401522602989e-05 1.302135564510e-05 5.445118470008e+06 3.315123720273e+06  2.776606312871e-05
2.959375000000e+01 0.000000000000e+00 5.850220417202e+05 -3.307255929472e+06 -6.020624524036e+06 -7.001274669558e+06 1.579257442822e+01 -3.461579747708e+01 3.105699769737e+04 -1.102842435277e-20 -1.176904176489e-18 -1.747226280546e-19 0.000000000000e+00 -2.491935894756e-05 1.319294936745e-05 5.443051707689e+06 3.314785477320e+06  2.368554068777e-05
3.339062500000e+01 0.000000000000e+00 5.830085735009e+05 -3.306002269573e+06 -6.018032841347e+06 -7.000040083248e+06 1.581651017451e+01 -3.462041219985e+01 2.556693634020e+04 -1.102382000161e-20 -1.161361064270e-18 -1.506675127620e-19 0.000000000000e+00 -2.583144987984e-05 1.324653976279e-05 5.441358398056e+06 3.314308784071e+06  1.956204442283e-05
3.908593750000e+01 0.000000000000e+00 5.827011805277e+05 -3.305658860602e+06 -6.017495642086e+06 -6.999527847271e+06 1.576400095635e+01 -3.464987565948e+01 2.107238415074e+04 -1.102388897407e-20 -1.163439153238e-18 -1.536133153762e-19 0.000000000000e+00 -2.648055175951e-05 1.340490781319e-05 5.440894116653e+06 3.314044232735e+06  1.623862952748e-05
4.762890625000e+01 0.000000000000e+00 5.833575275807e+05 -3.306597205006e+06 -6.018696129967e+06 -7.001192920111e+06 1.569906705779e+01 -3.464500149584e+01 1.888956107282e+04 -1.102309802117e-20 -1.172643128561e-18 -1.696141466908e-19 0.000000000000e+00 -2.667411126725e-05 1.343810562792e-05 5.442162085028e+06 3.314585865630e+06  1.462111375352e-05
6.044335937500e+01 0.000000000000e+00 5.844200098599e+05 -3.308927517338e+06 -6.021919756459e+06 -7.005084550632e+06 1.570760537881e+01 -3.467862660179e+01 1.795205692365e+04 -1.102280943805e-20 -1.185230739412e-18 -1.919467769183e-19 0.000000000000e+00 -2.663724866246e-05 1.328701526667e-05 5.445310608143e+06 3.315904882802e+06  1.392238241650e-05
7.966503906250e+01 0.000000000000e+00 5.855025864965e+05 -3.312581747679e+06 -6.027357548184e+06 -7.010804571093e+06 1.569078417759e+01 -3.468281783775e+01 1.714288709055e+04 -1.102271553646e-20 -1.198424061259e-18 -2.155704624185e-19 0.000000000000e+00 -2.655652487386e-05 1.306353625878e-05 5.450247955652e+06 3.317814870186e+06  1.335660439639e-05
9.950000000000e+01 0.000000000000e+00 5.865679059711e+05 -3.316136696648e+06 -6.032944694950e+06 -7.016072119158e+06 1.567162517230e+01 -3.468394565786e+01 1.667641678425e+04 -1.102263019441e-20 -1.211583388458e-18 -2.388630006372e-19 0.000000000000e+00 -2.646012453512e-05 1.288246803396e-05 5.455051170252e+06 3.319546353688e+06  1.308226718419e-05
1.000000000000e+02 0.000000000000e+00 6.391604501465e+05 -3.321473702975e+06 -6.041098994634e+06 -7.024187685718e+06 3.355537374638e+01 -4.725762044090e+01 4.893336500567e+04 -1.377367591697e-20 -1.914895362885e-18 -2.329183865319e-19 0.000000000000e+00 -3.843780039043e-05 2.004050683064e-05 5.462253461109e+06 3.323197466672e+06  3.706999681497e-05
1.005000000000e+02 0.000000000000e+00 6.859793480478e+05 -3.328020768361e+06 -6.063088056982e+06 -7.022174911951e+06 5.564649815842e+01 -6.150807555091e+01 6.067881393214e+04 -1.578280067242e-20 -2.779312653574e-18 -1.238035913438e-19 0.000000000000e+00 -5.509888795397e-05 2.827611824835e-05 5.471094579098e+06 3.321844898344e+06  4.645233957457e-05
1.012500000000e+02 0.000000000000e+00 6.791708174402e+05 -3.328449744860e+06 -6.065069325047e+06 -7.021499859936e+06 5.564000067918e+01 -6.248928609900e+01 4.641430053523e+04 -1.586044362973e-20 -2.806112316356e-18 -6.460694436618e-20 0.000000000000e+00 -5.749471038183e-05 2.866521203107e-05 5.471672976614e+06 3.320797420272e+06  3.605015878362e-05
1.023750000000e+02 0.000000000000e+00 6.836545935242e+05 -3.329164592996e+06 -6.066671894182e+06 -7.022108031099e+06 5.572549130120e+01 -6.048381143467e+01 4.068340155998e+04 -1.529732886073e-20 -2.859908910027e-18 -1.221202771494e-19 0.000000000000e+00 -5.818418015575e-05 2.869657358655e-05 5.472648172759e+06 3.320735351422e+06  3.193991825488e-05
1.040625000000e+02 0.000000000000e+00 6.925272932511e+05 -3.331215370254e+06 -6.070128746805e+06 -7.024891683581e+06 5.610166984576e+01 -6.222624666296e+01 3.797204996892e+04 -1.542623217291e-20 -2.939474952118e-18 -2.399693928039e-19 0.000000000000e+00 -5.821322112113e-05 2.847861451781e-05 5.475411933547e+06 3.321529373565e+06  3.004883214223e-05
1.065937500000e+02 0.000000000000e+00 7.034562660118e+05 -3.335371315356e+06 -6.077202505408e+06 -7.030486262787e+06 5.687892650280e+01 -6.331964567969e+01 3.633701485662e+04 -1.551508068200e-20 -3.044173269887e-18 -4.009590198871e-19 0.000000000000e+00 -5.797517850718e-05 2.812208102162e-05 5.481020027850e+06 3.323265335999e+06  2.902447429101e-05
1.103906250000e+02 0.000000000000e+00 7.160285918148e+05 -3.342959547381e+06 -6.089830683069e+06 -7.041026873086e+06 5.819684609785e+01 -6.295526433272e+01 3.585303968609e+04 -1.557547120621e-20 -3.172873667570e-18 -6.047998271851e-19 0.000000000000e+00 -5.742959721030e-05 2.753266740060e-05 5.491272367846e+06 3.326671749681e+06  2.893795960960e-05
1.160859375000e+02 0.000000000000e+00 7.300294650384e+05 -3.356331072673e+06 -6.111420064218e+06 -7.060264346850e+06 5.750664684639e+01 -6.330214231723e+01 3.629648689042e+04 -1.555450449756e-20 -3.324858160809e-18 -8.527240687008e-19 0.000000000000e+00 -5.652560381416e-05 2.663794847563e-05 5.509338494581e+06 3.333005188806e+06  2.968481895352e-05
1.246289062500e+02 0.000000000000e+00 7.429624907547e+05 -3.373285317373e+06 -6.138463659740e+06 -7.084993216044e+06 5.688867800627e+01 -6.331917494766e+01 3.738910909539e+04 -1.554386781305e-20 -3.470839695751e-18 -1.096427840444e-18 0.000000000000e+00 -5.541982002641e-05 2.567977557875e-05 5.532247397719e+06 3.341204326845e+06  3.105042182390e-05
1.374433593750e+02 0.000000000000e+00 7.479601692501e+05 -3.380930270381e+06 -6.150644984164e+06 -7.096154189211e+06 5.689635644629e+01 -6.344208420837e+01 3.781912185508e+04 -1.554251136681e-20 -3.528916998960e-18 -1.195155290335e-18 0.000000000000e+00 -5.496778234484e-05 2.524555257400e-05 5.542576481252e+06 3.344904914872e+06  3.165083603870e-05
1.565000000000e+02 0.000000000000e+00 7.492536270963e+05 -3.383909260456e+06 -6.155401007664e+06 -7.100494373379e+06 5.687045633843e+01 -6.343675852272e+01 3.779876032789e+04 -1.554237941325e-20 -3.544549319746e-18 -1.222343282195e-18 0.000000000000e+00 -5.484023160713e-05 2.509408367237e-05 5.546601547166e+06 3.346337206381e+06  3.176367100862e-05
1.570000000000e+02 0.000000000000e+00 7.627169320847e+05 -3.385515480034e+06 -6.158672574540e+06 -7.102119610977e+06 6.221624577536e+01 -6.721306250425e+01 4.368125956111e+04 -1.615307040466e-20 -3.750595720338e-18 -1.201810714306e-18 0.000000000000e+00 -5.859288223422e-05 2.712282226219e-05 5.548769221850e+06 3.347020108430e+06  3.592824603758e-05
1.575000000000e+02 0.000000000000e+00 7.767599930085e+05 -3.387321095017e+06 -6.163379176914e+06 -7.102918310778e+06 6.832259186602e+01 -7.141356494628e+01 4.760796181989e+04 -1.677981880013e-20 -3.979839942337e-18 -1.182268758795e-18 0.000000000000e+00 -6.280608626381e-05 2.924951385867e-05 5.551206194236e+06 3.347274570055e+06  3.891571022079e-05
1.582500000000e+02 0.000000000000e+00 7.795295974568e+05 -3.387591176561e+06 -6.164824619193e+06 -7.102285417931e+06 6.797971815369e+01 -7.255132526205e+01 4.507549053218e+04 -1.718493891675e-20 -4.013256019515e-18 -1.207853721616e-18 0.000000000000e+00 -6.324487466950e-05 2.930574956792e-05 5.551567071228e+06 3.346864391434e+06  3.729548833257e-05
1.593750000000e+02 0.000000000000e+00 7.839886371852e+05 -3.387982528260e+06 -6.165824886577e+06 -7.102494871431e+06 6.816823954876e+01 -7.142495082109e+01 4.392688944165e+04 -1.683711505481e-20 -4.048061330758e-18 -1.258306469041e-18 0.000000000000e+00 -6.329781736241e-05 2.924642771270e-05 5.552100762089e+06 3.346859592509e+06  3.657086268089e-05
1.610625000000e+02 0.000000000000e+00 7.888926797991e+05 -3.388841915945e+06 -6.167492878885e+06 -7.103441915674e+06 6.819714657361e+01 -7.226056839660e+01 4.329371165877e+04 -1.690683788653e-20 -4.088723635335e-18 -1.320449710540e-18 0.000000000000e+00 -6.322974940088e-05 2.914101020645e-05 5.553258903501e+06 3.347118242858e+06  3.621222220962e-05
1.635937500000e+02 0.000000000000e+00 7.930915470387e+05 -3.390061382229e+06 -6.169651747755e+06 -7.104999626410e+06 6.838057655536e+01 -7.272148211857e+01 4.292949902884e+04 -1.693983866354e-20 -4.127034264548e-18 -1.379606597264e-18 0.000000000000e+00 -6.312399054014e-05 2.902428125905e-05 5.554904252131e+06 3.347597804651e+06  3.604290179986e-05
1.673906250000e+02 0.000000000000e+00 7.958150086571e+05 -3.391286431442e+06 -6.171717167882e+06 -7.106674421831e+06 6.862072075883e+01 -7.266468460132e+01 4.273881454436e+04 -1.695351024465e-20 -4.154101828038e-18 -1.422055945847e-18 0.000000000000e+00 -6.303280301633e-05 2.892803622909e-05 5.556559340385e+06 3.348134388248e+06  3.597948037495e-05
1.730859375000e+02 0.000000000000e+00 7.971364878800e+05 -3.392181796109e+06 -6.173186032827e+06 -7.107939529410e+06 6.854324484646e+01 -7.266528921229e+01 4.265681081687e+04 -1.695146432473e-20 -4.168153183182e-18 -1.444651044285e-18 0.000000000000e+00 -6.297757487945e-05 2.886784494478e-05 5.557769119449e+06 3.348546093271e+06  3.596718843011e-05
1.816289062500e+02 0.000000000000e+00 7.976164953103e+05 -3.392668828937e+06 -6.173973969997e+06 -7.108638864824e+06 6.852202386705e+01 -7.266632739481e+01 4.262730368055e+04 -1.695104039070e-20 -4.173547141283e-18 -1.453578677741e-18 0.000000000000e+00 -6.295265410537e-05 2.883911189161e-05 5.558427221253e+06 3.348775346517e+06  3.596940581911e-05
1.944433593750e+02 0.000000000000e+00 7.977479665647e+05 -3.392869247848e+06 -6.174295978660e+06 -7.108928792512e+06 6.852230851906e+01 -7.266971763136e+01 4.261775584813e+04 -1.695100443204e-20 -4.175090252196e-18 -1.456203509333e-18 0.000000000000e+00 -6.294408667686e-05 2.882848229577e-05 5.558698006340e+06 3.348870659912e+06  3.597180814000e-05
2.125000000000e+02 0.000000000000e+00 7.977766023627e+05 -3.392931402001e+06 -6.174395642952e+06 -7.109018908784e+06 6.852248543743e+01 -7.267027564013e+01 4.261459319462e+04 -1.695100043342e-20 -4.175436595034e-18 -1.456804406854e-18 0.000000000000e+00 -6.294182955097e-05 2.882541320052e-05 5.558781984579e+06 3.348900298006e+06  3.597239544471e-05
2.130000000000e+02 0.000000000000e+00 8.098459528991e+05 -3.394412723797e+06 -6.177616958874e+06 -7.110313829918e+06 7.345276087707e+01 -7.612126866510e+01 4.742194788069e+04 -1.749708196681e-20 -4.364213452820e-18 -1.438126384925e-18 0.000000000000e+00 -6.639243299475e-05 3.065698827440e-05 5.560781170863e+06 3.349444984759e+06  3.939785246161e-05
2.135000000000e+02 0.000000000000e+00 8.229477023343e+05 -3.396048855842e+06 -6.181877931183e+06 -7.111040554740e+06 7.908641305185e+01 -8.003948167504e+01 5.067401584288e+04 -1.808118544249e-20 -4.572261190171e-18 -1.425102444432e-18 0.000000000000e+00 -7.016940464200e-05 3.254900035626e-05 5.562989113922e+06 3.349683369526e+06  4.188671791384e-05
2.142500000000e+02 0.000000000000e+00 8.264238569621e+05 -3.396308929974e+06 -6.183088624463e+06 -7.110611007189e+06 7.869606791496e+01 -8.121498495596e+01 4.867547779397e+04 -1.851749788318e-20 -4.604785293283e-18 -1.457593079136e-18 0.000000000000e+00 -7.046750317801e-05 3.256629773349e-05 5.563336187209e+06 3.349380140149e+06  4.063044885297e-05
2.153750000000e+02 0.000000000000e+00 8.311504315370e+05 -3.396693486498e+06 -6.184039269315e+06 -7.110849014963e+06 7.893174998203e+01 -8.008422106340e+01 4.781759071515e+04 -1.816785441063e-20 -4.639765720845e-18 -1.510486939514e-18 0.000000000000e+00 -7.046392825117e-05 3.249384769386e-05 5.563860590259e+06 3.349398700887e+06  4.010691539528e-05
2.170625000000e+02 0.000000000000e+00 8.355760028327e+05 -3.397415873144e+06 -6.185450764733e+06 -7.111635792128e+06 7.891936875846e+01 -8.081311635559e+01 4.736232295843e+04 -1.823007489731e-20 -4.675732450656e-18 -1.565932184267e-18 0.000000000000e+00 -7.038605384133e-05 3.239860542702e-05 5.564834143335e+06 3.349615357219e+06  3.986297066081e-05
2.195937500000e+02 0.000000000000e+00 8.387168655402e+05 -3.398268457604e+06 -6.186972160509e+06 -7.112712696320e+06 7.903719036118e+01 -8.116845022593e+01 4.711433294790e+04 -1.825453016514e-20 -4.704106025520e-18 -1.609745337398e-18 0.000000000000e+00 -7.030531781056e-05 3.231353314911e-05 5.565984438144e+06 3.349946158075e+06  3.975259000021e-05
2.233906250000e+02 0.000000000000e+00 8.403846434902e+05 -3.398978764492e+06 -6.188175633430e+06 -7.113677847291e+06 7.917970960343e+01 -8.113589363093e+01 4.699467371787e+04 -1.826296673512e-20 -4.720607120716e-18 -1.635569912212e-18 0.000000000000e+00 -7.025143002165e-05 3.225638787472e-05 5.566944081738e+06 3.350254756774e+06  3.971105649496e-05
2.290859375000e+02 0.000000000000e+00 8.410489438771e+05 -3.399411464750e+06 -6.188887534520e+06 -7.114287198588e+06 7.914005806569e+01 -8.113453347700e+01 4.694877966402e+04 -1.826193484046e-20 -4.727659869441e-18 -1.646890544468e-18 0.000000000000e+00 -7.022508253140e-05 3.222702838248e-05 5.567528732619e+06 3.350452820476e+06  3.970121331652e-05
2.376289062500e+02 0.000000000000e+00 8.412483768006e+05 -3.399608442452e+06 -6.189206873523e+06 -7.114569380624e+06 7.913130986929e+01 -8.113498723724e+01 4.693427390660e+04 -1.826175752084e-20 -4.729900902860e-18 -1.650595604581e-18 0.000000000000e+00 -7.021530652983e-05 3.221543728933e-05 5.567794898867e+06 3.350545252776e+06  3.970041412090e-05
2.504433593750e+02 0.000000000000e+00 8.412939235944e+05 -3.399676684580e+06 -6.189316723311e+06 -7.114667893193e+06 7.913141406263e+01 -8.113617085305e+01 4.693017162178e+04 -1.826174503656e-20 -4.730435939630e-18 -1.651505179529e-18 0.000000000000e+00 -7.021251979412e-05 3.221185915742e-05 5.567887100361e+06 3.350577617105e+06  3.970065683467e-05
2.665000000000e+02 0.000000000000e+00 8.413030732107e+05 -3.399694133098e+06 -6.189344791529e+06 -7.114693101280e+06 7.913148160368e+01 -8.113639350039e+01 4.692897354081e+04 -1.826174341965e-20 -4.730545786831e-18 -1.651694491919e-18 0.000000000000e+00 -7.021190884776e-05 3.221100085392e-05 5.567910675302e+06 3.350585894471e+06  3.970061663002e-05
2.670000000000e+02 0.000000000000e+00 8.555566127741e+05 -3.401443597421e+06 -6.193341294779e+06 -7.116030062867e+06 8.502024144107e+01 -8.525431526451e+01 5.199769503948e+04 -1.890537986152e-20 -4.953338275236e-18 -1.632730186058e-18 0.000000000000e+00 -7.426481310541e-05 3.432959749154e-05 5.570271651689e+06 3.351150740661e+06  4.335269855722e-05
2.675000000000e+02 0.000000000000e+00 8.716684495521e+05 -3.403357696980e+06 -6.198363929635e+06 -7.116841018704e+06 9.179825608864e+01 -9.004310083314e+01 5.540888200416e+04 -1.962289309472e-20 -5.198390122767e-18 -1.626050892453e-18 0.000000000000e+00 -7.862221527402e-05 3.649270937937e-05 5.572854215107e+06 3.351420545745e+06  4.600086592913e-05
2.682500000000e+02 0.000000000000e+00 8.771082253565e+05 -3.403688441840e+06 -6.199700319964e+06 -7.116496506671e+06 9.121789798609e+01 -9.163313557276e+01 5.336975618796e+04 -2.023784454552e-20 -5.240542912555e-18 -1.677144486266e-18 0.000000000000e+00 -7.885601956527e-05 3.647116298680e-05 5.573295089492e+06 3.351136485015e+06  4.473177004785e-05
2.693750000000e+02 0.000000000000e+00 8.834154328644e+05 -3.404161740540e+06 -6.200849355559e+06 -7.116810666264e+06 9.159447107043e+01 -9.017838944433e+01 5.253959668259e+04 -1.978894498092e-20 -5.285392516747e-18 -1.747041714791e-18 0.000000000000e+00 -7.879878410629e-05 3.636727071431e-05 5.573940587454e+06 3.351176758903e+06  4.424187411899e-05
2.710625000000e+02 0.000000000000e+00 8.883927219655e+05 -3.404916393646e+06 -6.202337033254e+06 -7.117619569220e+06 9.153716867873e+01 -9.097522262442e+01 5.211757033002e+04 -1.985805453744e-20 -5.325166861444e-18 -1.808746519913e-18 0.000000000000e+00 -7.869863827300e-05 3.626095169692e-05 5.574957665373e+06 3.351400212764e+06  4.402719251402e-05
2.735937500000e+02 0.000000000000e+00 8.913026020051e+05 -3.405657346111e+06 -6.203669849089e+06 -7.118544730489e+06 9.163028873718e+01 -9.131377888647e+01 5.190317324945e+04 -1.988052107101e-20 -5.351234566252e-18 -1.848984091203e-18 0.000000000000e+00 -7.862312223648e-05 3.618412713325e-05 5.575957308563e+06 3.351683642685e+06  4.393433212729e-05
2.773906250000e+02 0.000000000000e+00 8.925661328571e+05 -3.406170056347e+06 -6.204542607440e+06 -7.119237301199e+06 9.173539147310e+01 -9.129051619108e+01 5.181015896070e+04 -1.988695583498e-20 -5.363691176262e-18 -1.868441765615e-18 0.000000000000e+00 -7.858359045833e-05 3.614212483261e-05 5.576649988329e+06 3.351904647973e+06  4.390058116844e-05
2.830859375000e+02 0.000000000000e+00 8.929791777920e+05 -3.406430201723e+06 -6.204971828284e+06 -7.119602442681e+06 9.171036376221e+01 -9.128882044105e+01 5.177877550505e+04 -1.988631237016e-20 -5.368072084825e-18 -1.875462398696e-18 0.000000000000e+00 -7.856799448286e-05 3.612444067351e-05 5.577001490896e+06 3.352023182903e+06  4.389222577329e-05
2.916289062500e+02 0.000000000000e+00 8.930818326167e+05 -3.406529416364e+06 -6.205133028648e+06 -7.119744220062e+06 9.170588364571e+01 -9.128906320637e+01 5.177005224310e+04 -1.988622057227e-20 -5.369226108199e-18 -1.877368462443e-18 0.000000000000e+00 -7.856324951908e-05 3.611866624903e-05 5.577135555025e+06 3.352069578549e+06  4.389087456387e-05
3.044433593750e+02 0.000000000000e+00 8.931014880430e+05 -3.406558500407e+06 -6.205179940814e+06 -7.119786109499e+06 9.170593069847e+01 -9.128957771950e+01 5.176789585559e+04 -1.988621517419e-20 -5.369457274213e-18 -1.877761262716e-18 0.000000000000e+00 -7.856212526735e-05 3.611717059640e-05 5.577174850240e+06 3.352083328181e+06  4.389070067543e-05
3.165000000000e+02 0.000000000000e+00 8.931056262337e+05 -3.406564351555e+06 -6.205189415326e+06 -7.119794500168e+06 9.170592437810e+01 -9.128967836336e+01 5.176730541845e+04 -1.988621388127e-20 -5.369505839872e-18 -1.877843464249e-18 0.000000000000e+00 -7.856192020678e-05 3.611687674032e-05 5.577182755683e+06 3.352086072081e+06  4.389056601994e-05
3.170000000000e+02 0.000000000000e+00 9.084156736352e+05 -3.408415736955e+06 -6.209572501553e+06 -7.121054941397e+06 9.803887064084e+01 -9.573729896120e+01 5.657195601291e+04 -2.057660926318e-20 -5.605553742780e-18 -1.862641558727e-18 0.000000000000e+00 -8.281223632276e-05 3.830939283241e-05 5.579681059968e+06 3.352623730026e+06  4.739257174289e-05
3.175000000000e+02 0.000000000000e+00 9.264497166273e+05 -3.410423660808e+06 -6.214865241187e+06 -7.121879687695e+06 1.053899466354e+02 -1.010419582536e+02 5.983987177553e+04 -2.137811806931e-20 -5.865214634216e-18 -1.866717393150e-18 0.000000000000e+00 -8.730112078741e-05 4.052184019290e-05 5.582389529897e+06 3.352906098661e+06  4.996285351597e-05
3.182500000000e+02 0.000000000000e+00 9.334856892872e+05 -3.410785119585e+06 -6.216209277492e+06 -7.121618247770e+06 1.046451179082e+02 -1.028693953370e+02 5.797250068052e+04 -2.212104705727e-20 -5.913606590223e-18 -1.932583300785e-18 0.000000000000e+00 -8.744613031867e-05 4.046325746325e-05 5.582870881616e+06 3.352656976837e+06  4.881767632782e-05
3.193750000000e+02 0.000000000000e+00 9.403540810415e+05 -3.411245823367e+06 -6.217343823015e+06 -7.121908861766e+06 1.051571580525e+02 -1.013170671188e+02 5.724915725875e+04 -2.164471108691e-20 -5.961079310342e-18 -2.007899198399e-18 0.000000000000e+00 -8.735532373401e-05 4.034813794369e-05 5.583499502716e+06 3.352693618681e+06  4.840417679450e-05
3.210625000000e+02 0.000000000000e+00 9.448567501636e+05 -3.411871383333e+06 -6.218597774280e+06 -7.122558709877e+06 1.050609753708e+02 -1.020220940118e+02 5.690311364197e+04 -2.170627398528e-20 -5.996577573637e-18 -2.063138858616e-18 0.000000000000e+00 -8.726112519777e-05 4.025392147577e-05 5.584342622497e+06 3.352870915859e+06  4.823344911858e-05
3.235937500000e+02 0.000000000000e+00 9.470301967979e+05 -3.412391439954e+06 -6.219542244781e+06 -7.123198962236e+06 1.051196353610e+02 -1.022822055253e+02 5.674317360689e+04 -2.172293198577e-20 -6.015927788119e-18 -2.092969095833e-18 0.000000000000e+00 -8.720595105433e-05 4.019813319478e-05 5.585044215657e+06 3.353065942316e+06  4.816373495303e-05
3.273906250000e+02 0.000000000000e+00 9.478138527415e+05 -3.412696751524e+06 -6.220064460993e+06 -7.123608868839e+06 1.051834928073e+02 -1.022684239183e+02 5.668196405479e+04 -2.172694768938e-20 -6.023636772459e-18 -2.104988082693e-18 0.000000000000e+00 -8.718247368740e-05 4.017284591031e-05 5.585456693785e+06 3.353196377711e+06  4.814013454463e-05
3.330859375000e+02 0.000000000000e+00 9.480285126350e+05 -3.412828562288e+06 -6.220282552370e+06 -7.123793268579e+06 1.051703323074e+02 -1.022672264769e+02 5.666386826618e+04 -2.172661247106e-20 -6.025913195340e-18 -2.108631165026e-18 0.000000000000e+00 -8.717478526196e-05 4.016392986301e-05 5.585634794412e+06 3.353256138814e+06  4.813447871969e-05
3.416289062500e+02 0.000000000000e+00 9.480737358893e+05 -3.412871637244e+06 -6.220352690960e+06 -7.123854670850e+06 1.051683621485e+02 -1.022673360755e+02 5.665943578733e+04 -2.172657184966e-20 -6.026422029726e-18 -2.109470946754e-18 0.000000000000e+00 -8.717281605241e-05 4.016146185013e-05 5.585692999685e+06 3.353276207641e+06  4.813345988336e-05
3.544433593750e+02 0.000000000000e+00 9.480811771757e+05 -3.412882569801e+06 -6.220370359388e+06 -7.123870382501e+06 1.051683805899e+02 -1.022675320797e+02 5.665847436528e+04 -2.172656980258e-20 -6.026509664848e-18 -2.109619806248e-18 0.000000000000e+00 -8.717241785566e-05 4.016091129935e-05 5.585707770563e+06 3.353281359495e+06  4.813329194908e-05