 TITLE = "Time curves in points"
 VARIABLES = "TIME"  "STRAIN_PLS"  "VELOCITY_X1"  "VELOCITY_Y1"  "VELOCITY_Z1"  "DISPLACEMENT_X1"  "DISPLACEMENT_Y1"  "DISPLACEMENT_Z1"  "PRESSURE1"  "STRESS_XX"  "STRESS_YY"  "STRESS_ZZ"  "STRESS_XY"  "STRESS_XZ"  "STRESS_YZ"  p_(1st_Invariant)  q_(2nd_Invariant)   Effective_Strain
 ZONE T="POINT=POINTAW2"
0.000000000000e+00 0.000000000000e+00 0.000000000000e+00 0.000000000000e+00 0.000000000000e+00 0.000000000000e+00 0.000000000000e+00 0.000000000000e+00 5.000000000000e+05 -3.300000000000e+06 -6.000000000000e+06 -7.000000000000e+06 0.000000000000e+00 0.000000000000e+00 0.000000000000e+00 5.433333333333e+06 3.315116890850e+06  0.000000000000e+00
5.000000000000e-02 0.000000000000e+00 -6.466610688595e-32 2.203495267322e-31 -7.972764361425e-32 0.000000000000e+00 1.661718780366e-19 1.806730764368e-20 5.000000000000e+05 -3.300000000000e+06 -6.000000000000e+06 -7.000000000000e+06 8.757641427902e-10 -3.962747398968e-09 -5.184954047575e-09 5.433333333333e+06 3.315116890850e+06  4.986826200012e-18
1.000000000000e-01 0.000000000000e+00 -6.370537838342e-32 2.237080834019e-31 -9.115542092481e-32 0.000000000000e+00 1.190643808700e-19 7.916927964495e-20 5.000000000000e+05 -3.300000000000e+06 -6.000000000000e+06 -7.000000000000e+06 8.251307518298e-10 -3.971236528273e-09 -5.471794260873e-09 5.433333333333e+06 3.315116890850e+06  5.152591027946e-18
1.500000000000e-01 0.000000000000e+00 -1.320963206283e-23 -4.048008719207e-21 4.502176825494e-21 0.000000000000e+00 3.223554795266e-08 1.019945798701e-08 4.998471845751e+05 -3.300001148562e+06 -5.999885456854e+06 -7.000118241167e+06 -1.950435772466e-02 1.304501996663e-02 -7.536733056522e+02 5.433334948861e+06 3.315170493964e+06  5.693015630418e-07
2.000000000000e-01 0.000000000000e+00 -4.586454627982e-23 -1.384980630043e-20 1.628936254265e-20 0.000000000000e+00 1.157381189331e-07 3.643768810058e-08 4.994908595387e+05 -3.300004705889e+06 -5.999653102584e+06 -7.000361131113e+06 2.347263142373e-02 7.924819805791e-02 -2.706353239847e+03 5.433339646529e+06 3.315282766516e+06  2.042583234400e-06
2.750000000000e-01 0.000000000000e+00 -5.677740637535e-23 -2.305185161833e-20 2.978900489902e-20 0.000000000000e+00 2.058805086442e-07 6.325114041692e-08 4.991972512370e+05 -3.300007594303e+06 -5.999557076948e+06 -7.000465887709e+06 1.380696292629e-02 1.077284463663e-01 -4.818274204125e+03 5.433343519653e+06 3.315336840545e+06  3.632805737701e-06
3.875000000000e-01 0.000000000000e+00 -6.089172115207e-23 -3.110912864415e-20 4.628046494430e-20 0.000000000000e+00 3.108152058491e-07 9.141635602134e-08 4.990060403736e+05 -3.300010231468e+06 -5.999722241745e+06 -7.000309154076e+06 -3.398341428712e-02 1.202632664383e-01 -7.249609564376e+03 5.433347209096e+06 3.315278763940e+06  5.460996697481e-06
5.562500000000e-01 0.000000000000e+00 -6.273205718653e-23 -3.573533130356e-20 6.538582901680e-20 0.000000000000e+00 4.413277250256e-07 1.203416062303e-07 4.990036317196e+05 -3.300023750575e+06 -6.000457556870e+06 -6.999615136513e+06 -5.768247352731e-02 1.344351964305e-01 -1.012104931149e+04 5.433365481319e+06 3.314984890454e+06  7.624088445648e-06
8.093750000000e-01 0.000000000000e+00 -6.159587734597e-23 -3.014159595037e-20 8.405870148659e-20 0.000000000000e+00 6.112510493518e-07 1.458582642894e-07 4.993111033651e+05 -3.300092606019e+06 -6.002338253070e+06 -6.997945131495e+06 9.725646152769e-03 8.923196259105e-02 -1.332301828810e+04 5.433458663528e+06 3.314252774792e+06  1.006796861445e-05
1.189062500000e+00 0.000000000000e+00 -6.080947949087e-23 -6.627431177973e-21 9.773475613499e-20 0.000000000000e+00 8.370372604755e-07 1.573022417884e-07 5.000777003562e+05 -3.300306656976e+06 -6.006063609150e+06 -6.994873696259e+06 5.574531034797e-02 2.045439006886e-02 -1.621084696411e+04 5.433747987462e+06 3.312874011317e+06  1.238933514521e-05
1.758593750000e+00 0.000000000000e+00 -6.027141029587e-23 3.091397214546e-20 1.019843335369e-19 0.000000000000e+00 1.132397786170e-06 1.357040732178e-07 5.013429586357e+05 -3.300829613119e+06 -6.011937691879e+06 -6.990596270000e+06 2.716330711366e-02 -1.284606095055e-02 -1.747147949205e+04 5.434454524999e+06 3.310897848398e+06  1.375843196160e-05
2.612890625000e+00 0.000000000000e+00 -6.006308687431e-23 6.860504949811e-20 9.570139035441e-20 0.000000000000e+00 1.496168856269e-06 5.867953584164e-08 5.028628882280e+05 -3.301872005844e+06 -6.019040181951e+06 -6.986677061108e+06 8.337369393023e-02 -2.412851515849e-02 -1.585295443236e+04 5.435863082968e+06 3.308974177856e+06  1.340604569532e-05
3.894335937500e+00 0.000000000000e+00 -5.997994045845e-23 9.462460033640e-20 8.329745501055e-20 0.000000000000e+00 1.902758380168e-06 -8.540382063484e-08 5.042148795650e+05 -3.303373417089e+06 -6.025015766894e+06 -6.985286237674e+06 1.282093136778e-01 -3.636035176078e-02 -1.169681395273e+04 5.437891807219e+06 3.308077944096e+06  1.156316425972e-05
5.816503906250e+00 0.000000000000e+00 -5.994800254035e-23 1.068374107213e-19 7.109293137941e-20 0.000000000000e+00 2.319146847381e-06 -2.887116973473e-07 5.051428159879e+05 -3.304978099781e+06 -6.028049626739e+06 -6.987152246573e+06 1.476502583020e-01 -4.885048696123e-02 -6.776510496729e+03 5.440059991031e+06 3.308600788111e+06  9.255550670927e-06
8.699755859375e+00 0.000000000000e+00 -5.993971154417e-23 1.115322117871e-19 6.235194784410e-20 0.000000000000e+00 2.730017390538e-06 -5.226138806682e-07 5.056920051439e+05 -3.306422172342e+06 -6.029010453868e+06 -6.990600851997e+06 1.532948819159e-01 -4.799901960505e-02 -2.293213498484e+03 5.442011159402e+06 3.309860053014e+06  7.471497335170e-06
1.302463378906e+01 0.000000000000e+00 -5.993799324853e-23 1.128240739647e-19 5.778725725814e-20 0.000000000000e+00 3.103692092124e-06 -7.522941035167e-07 5.059465571572e+05 -3.307386696393e+06 -6.028665615306e+06 -6.993890824047e+06 1.531269192744e-01 -4.443202844413e-02 7.614803499751e+02 5.443314378582e+06 3.311142916006e+06  6.626759225731e-06
1.951195068359e+01 0.000000000000e+00 -5.993775100816e-23 1.123959493365e-19 5.593362885668e-20 0.000000000000e+00 3.424592916077e-06 -9.655893454951e-07 5.060204998684e+05 -3.307752627032e+06 -6.027029002063e+06 -6.996644787837e+06 1.560915701371e-01 -4.389593007167e-02 2.315460091832e+03 5.443808805644e+06 3.312293489261e+06  6.046232309609e-06
2.250000000000e+01 0.000000000000e+00 -5.993653349943e-23 1.117161054916e-19 5.493963546128e-20 0.000000000000e+00 3.537408847538e-06 -1.043920658878e-06 5.060433766660e+05 -3.307795603410e+06 -6.026255725423e+06 -6.997549311058e+06 1.551136487887e-01 -4.031055806414e-02 2.674305750522e+03 5.443866879964e+06 3.312684862694e+06  5.836668666229e-06
2.300000000000e+01 0.000000000000e+00 -5.534893835497e-23 2.754560008257e-19 1.927011442142e-19 0.000000000000e+00 7.304396061686e-06 -1.108340734640e-06 5.136895031237e+05 -3.312672919123e+06 -6.070607593143e+06 -6.968082243878e+06 -1.021072620504e+00 -4.532156937292e-01 -3.059949856393e+04 5.450454252048e+06 3.299946948230e+06  3.009687529705e-05
2.350000000000e+01 0.000000000000e+00 -3.052003923247e-23 1.159480189779e-18 -9.840698623097e-20 0.000000000000e+00 1.931264621315e-05 -4.781891729436e-06 5.631946234664e+05 -3.337276124773e+06 -6.175959690918e+06 -6.937848250172e+06 -3.146210208604e+00 -4.904175624214e-01 2.179000715651e+04 5.483694688621e+06 3.286758815472e+06  4.793153380392e-05
2.425000000000e+01 0.000000000000e+00 -2.885932256677e-23 1.005905568318e-18 -2.182637875450e-19 0.000000000000e+00 2.333966396312e-05 -8.198371622560e-06 5.637889547649e+05 -3.335257151923e+06 -6.117067061958e+06 -6.990563089511e+06 -3.329951780585e+00 -2.013393658755e+00 3.081478868434e+04 5.480962434464e+06 3.306691737249e+06  3.349896367039e-05
2.537500000000e+01 0.000000000000e+00 -2.858554388772e-23 9.170038651125e-19 -1.967775922395e-19 0.000000000000e+00 2.508380993160e-05 -9.726380820793e-06 5.588060069206e+05 -3.328870815535e+06 -6.088760150380e+06 -6.999363466959e+06 -3.863007200456e+00 -2.546747635997e+00 2.184281890078e+04 5.472331477625e+06 3.310707363802e+06  2.376620309813e-05
2.706250000000e+01 0.000000000000e+00 -2.857762098976e-23 8.790744182331e-19 -1.861645628360e-19 0.000000000000e+00 2.602412675227e-05 -1.044344751316e-05 5.563294176763e+05 -3.324437487811e+06 -6.074099319236e+06 -7.000486079800e+06 -3.881429336706e+00 -2.701388027455e+00 1.666324573979e+04 5.466340962283e+06 3.311633422549e+06  1.890509829568e-05
2.959375000000e+01 0.000000000000e+00 -2.860232842606e-23 8.614856907924e-19 -1.807455373070e-19 0.000000000000e+00 2.670917246647e-05 -1.100218147320e-05 5.550981183126e+05 -3.321446443282e+06 -6.064444983379e+06 -7.001007190148e+06 -3.901660237454e+00 -2.716574000011e+00 1.373953937055e+04 5.462299538937e+06 3.312211474060e+06  1.599220231987e-05
3.339062500000e+01 0.000000000000e+00 -2.860904368128e-23 8.522693725627e-19 -1.781110354535e-19 0.000000000000e+00 2.734743855350e-05 -1.164741046731e-05 5.545120063559e+05 -3.319461054988e+06 -6.056264872115e+06 -7.003124894076e+06 -3.918390367037e+00 -2.717006761736e+00 1.169374326338e+04 5.459616940393e+06 3.313369793424e+06  1.351359465722e-05
3.908593750000e+01 0.000000000000e+00 -2.861164743840e-23 8.482112898604e-19 -1.780024575500e-19 0.000000000000e+00 2.794348960920e-05 -1.204299976300e-05 5.543299522889e+05 -3.318845351761e+06 -6.050908200750e+06 -7.006601654305e+06 -3.910083427717e+00 -2.711272212272e+00 1.055132399509e+04 5.458785068939e+06 3.314945845538e+06  1.172088716305e-05
4.762890625000e+01 0.000000000000e+00 -2.861092268034e-23 8.480631536591e-19 -1.788147694284e-19 0.000000000000e+00 2.820585284978e-05 -1.219992560143e-05 5.544083014074e+05 -3.319943399227e+06 -6.050460214607e+06 -7.010402398184e+06 -3.916778020540e+00 -2.709893639708e+00 9.786918338295e+03 5.460268670673e+06 3.316419258826e+06  1.078943634126e-05
6.044335937500e+01 0.000000000000e+00 -2.861088744183e-23 8.494465428340e-19 -1.799246952427e-19 0.000000000000e+00 2.822851984282e-05 -1.232176378598e-05 5.545851400819e+05 -3.322689852400e+06 -6.053825431254e+06 -7.015423309723e+06 -3.915656683811e+00 -2.709100072371e+00 9.307214674519e+03 5.463979531126e+06 3.318175113100e+06  1.039926214485e-05
7.966503906250e+01 0.000000000000e+00 -2.861083126697e-23 8.508836474766e-19 -1.809898143034e-19 0.000000000000e+00 2.820577380228e-05 -1.246809990883e-05 5.547576078192e+05 -3.326778096876e+06 -6.059322086952e+06 -7.022409850157e+06 -3.913047356549e+00 -2.709107930504e+00 9.066292985883e+03 5.469503344662e+06 3.320581420425e+06  1.021296564369e-05
9.950000000000e+01 0.000000000000e+00 -2.861078362701e-23 8.523224080975e-19 -1.820467281975e-19 0.000000000000e+00 2.816671690135e-05 -1.256007146210e-05 5.549270385776e+05 -3.330746260095e+06 -6.064909360355e+06 -7.028939112965e+06 -3.910951850523e+00 -2.709061810945e+00 9.180849951515e+03 5.474864911138e+06 3.322810356305e+06  1.029788997675e-05
1.000000000000e+02 0.000000000000e+00 -8.338026321611e-25 1.455173833422e-18 -3.431890616613e-19 0.000000000000e+00 4.184915822569e-05 -1.751233251702e-05 5.926678366543e+05 -3.344832279609e+06 -6.120829978598e+06 -7.016036321242e+06 -3.543268136321e+00 -3.894190951395e+00 1.589130151182e+04 5.493899526483e+06 3.315630553677e+06  2.364036472619e-05
1.005000000000e+02 0.000000000000e+00 2.766599207875e-23 1.977507490986e-18 -5.689365885542e-19 0.000000000000e+00 5.913975863741e-05 -2.517964260174e-05 6.273373558742e+05 -3.355932466415e+06 -6.147569010989e+06 -7.023200639820e+06 -2.446954231765e+00 -5.799285364467e+00 2.597886785625e+04 5.508900705742e+06 3.317594807369e+06  3.117898212495e-05
1.012500000000e+02 0.000000000000e+00 2.761264059519e-23 1.905395581601e-18 -5.679611909324e-19 0.000000000000e+00 6.102659075350e-05 -2.671543366105e-05 6.234913531538e+05 -3.354138828846e+06 -6.130444487900e+06 -7.034846969339e+06 -2.397175854051e+00 -6.156265480593e+00 2.299580898890e+04 5.506476762028e+06 3.322393882434e+06  2.573566898403e-05
1.023750000000e+02 0.000000000000e+00 2.804193261181e-23 1.908049093460e-18 -5.808184998583e-19 0.000000000000e+00 6.169288741982e-05 -2.727389917475e-05 6.248334429875e+05 -3.356038010637e+06 -6.127823528761e+06 -7.043267019001e+06 -2.206075926580e+00 -6.461209514662e+00 2.177770678466e+04 5.509042852800e+06 3.325607847731e+06  2.374068990636e-05
1.040625000000e+02 0.000000000000e+00 2.827903981603e-23 1.931715575012e-18 -5.977424168543e-19 0.000000000000e+00 6.182866345088e-05 -2.752789068937e-05 6.275894500436e+05 -3.360934221754e+06 -6.133099890691e+06 -7.052940074056e+06 -2.121039730840e+00 -6.743187406359e+00 2.141167785408e+04 5.515658062167e+06 3.329013850407e+06  2.316219634793e-05
1.065937500000e+02 0.000000000000e+00 2.837400385292e-23 1.958889292921e-18 -6.155526158513e-19 0.000000000000e+00 6.174138246262e-05 -2.768024299715e-05 6.305603800520e+05 -3.368895630021e+06 -6.144222346220e+06 -7.066126317130e+06 -2.091591988211e+00 -6.812301288419e+00 2.195077502220e+04 5.526414764457e+06 3.333522992749e+06  2.348866227133e-05
1.103906250000e+02 0.000000000000e+00 2.839211731471e-23 1.987070321908e-18 -6.334171677829e-19 0.000000000000e+00 6.138184490692e-05 -2.777073501046e-05 6.335681711454e+05 -3.381142836474e+06 -6.163065629904e+06 -7.084679291726e+06 -2.097766114163e+00 -6.731584247476e+00 2.338636270646e+04 5.542962586035e+06 3.339755228884e+06  2.478578079628e-05
1.160859375000e+02 0.000000000000e+00 2.839579303648e-23 2.014946881046e-18 -6.510360168379e-19 0.000000000000e+00 6.073341220781e-05 -2.780409703187e-05 6.365357736988e+05 -3.399941253585e+06 -6.192710930234e+06 -7.112434339686e+06 -2.014450485191e+00 -6.688880576940e+00 2.560620571190e+04 5.568362174502e+06 3.349029157680e+06  2.704227095989e-05
1.246289062500e+02 0.000000000000e+00 2.840433274207e-23 2.038524182519e-18 -6.659810621356e-19 0.000000000000e+00 5.996409721096e-05 -2.771525787942e-05 6.390503921655e+05 -3.422048850811e+06 -6.227825946332e+06 -7.144823000558e+06 -2.059580247938e+00 -6.675119752540e+00 2.812570054589e+04 5.598232599234e+06 3.359840949190e+06  2.980260435784e-05
1.374433593750e+02 0.000000000000e+00 2.840457470328e-23 2.046928195676e-18 -6.714195892493e-19 0.000000000000e+00 5.963929404072e-05 -2.771391060581e-05 6.399587786947e+05 -3.431711682783e+06 -6.243082090418e+06 -7.159071747951e+06 -2.050413697702e+00 -6.670176372516e+00 2.919162507160e+04 5.611288507051e+06 3.364607449851e+06  3.099940642402e-05
1.565000000000e+02 0.000000000000e+00 2.840463222573e-23 2.048877197063e-18 -6.727380371024e-19 0.000000000000e+00 5.955528736665e-05 -2.774047943970e-05 6.401753572695e+05 -3.435207047735e+06 -6.248376849144e+06 -7.164449873543e+06 -2.048414904518e+00 -6.669566760468e+00 2.950788781107e+04 5.616011256807e+06 3.366421725243e+06  3.135648951008e-05
1.570000000000e+02 0.000000000000e+00 3.623703546932e-23 2.204965303403e-18 -7.267822263339e-19 0.000000000000e+00 6.365653893325e-05 -2.940130455465e-05 6.502501716582e+05 -3.438641595012e+06 -6.259928525877e+06 -7.163388487987e+06 -1.737458746071e+00 -7.218233007405e+00 3.101612465851e+04 5.620652869625e+06 3.365665704314e+06  3.358633236061e-05
1.575000000000e+02 0.000000000000e+00 4.446259543343e-23 2.357956848113e-18 -7.887542600214e-19 0.000000000000e+00 6.813608510629e-05 -3.134688281622e-05 6.605149301289e+05 -3.442184530814e+06 -6.269291479011e+06 -7.164846890412e+06 -1.412759460857e+00 -7.771007672511e+00 3.285929723883e+04 5.625440966746e+06 3.365950581623e+06  3.555554086477e-05
1.582500000000e+02 0.000000000000e+00 4.495993741288e-23 2.363779578734e-18 -7.999313832111e-19 0.000000000000e+00 6.851766594919e-05 -3.165715299046e-05 6.616796082283e+05 -3.442951420563e+06 -6.267722095259e+06 -7.168758078992e+06 -1.272716933378e+00 -7.920970895168e+00 3.294306487858e+04 5.626477198271e+06 3.367442793733e+06  3.508092322797e-05
1.593750000000e+02 0.000000000000e+00 4.527311090394e-23 2.378904647567e-18 -8.101360010472e-19 0.000000000000e+00 6.859439750600e-05 -3.176054437093e-05 6.633745122148e+05 -3.444604476215e+06 -6.269237116211e+06 -7.172290993020e+06 -1.121946305705e+00 -8.092487676706e+00 3.294455914208e+04 5.628710861815e+06 3.368695198974e+06  3.497066049729e-05
1.610625000000e+02 0.000000000000e+00 4.539750737762e-23 2.394359464363e-18 -8.196004530426e-19 0.000000000000e+00 6.857179208101e-05 -3.180359348525e-05 6.650031668434e+05 -3.447016649923e+06 -6.272492233603e+06 -7.176401083510e+06 -1.056325301000e+00 -8.229609196401e+00 3.313212334363e+04 5.631969989012e+06 3.370108170548e+06  3.511906809450e-05
1.635937500000e+02 0.000000000000e+00 4.543587269942e-23 2.405830049970e-18 -8.266521689454e-19 0.000000000000e+00 6.851347969820e-05 -3.182239656235e-05 6.662069994016e+05 -3.449676090079e+06 -6.276381350838e+06 -7.180631990779e+06 -1.047810690033e+00 -8.268599462560e+00 3.341704554740e+04 5.635563143899e+06 3.371547417583e+06  3.538536303423e-05
1.673906250000e+02 0.000000000000e+00 4.544033882688e-23 2.412241700946e-18 -8.306849800142e-19 0.000000000000e+00 6.845869817849e-05 -3.183297891594e-05 6.668870999334e+05 -3.451890841400e+06 -6.279699707413e+06 -7.184076188547e+06 -1.056722176443e+00 -8.258622672345e+00 3.367219003250e+04 5.638555579120e+06 3.372714794235e+06  3.563336404186e-05
1.730859375000e+02 0.000000000000e+00 4.544057737795e-23 2.414940228900e-18 -8.324273164791e-19 0.000000000000e+00 6.842462286111e-05 -3.184061773661e-05 6.671776942453e+05 -3.453286252380e+06 -6.281803503559e+06 -7.186233207559e+06 -1.055208098924e+00 -8.255591589026e+00 3.383021437302e+04 5.640440987833e+06 3.373445034436e+06  3.579120162076e-05
1.816289062500e+02 0.000000000000e+00 4.544092744494e-23 2.415803597080e-18 -8.329986359621e-19 0.000000000000e+00 6.840913850003e-05 -3.184533475716e-05 6.672721175587e+05 -3.453959858555e+06 -6.282817352674e+06 -7.187276156687e+06 -1.056517555198e+00 -8.255294613702e+00 3.390164014078e+04 5.641351122639e+06 3.373798079296e+06  3.586461563652e-05
1.944433593750e+02 0.000000000000e+00 4.544093296041e-23 2.416015798557e-18 -8.331422099365e-19 0.000000000000e+00 6.840383875613e-05 -3.184757435972e-05 6.672956655750e+05 -3.454212013142e+06 -6.283194235661e+06 -7.187669213055e+06 -1.056268691048e+00 -8.255161221376e+00 3.392590995351e+04 5.641691820619e+06 3.373931228423e+06  3.589030132564e-05
2.125000000000e+02 0.000000000000e+00 4.544093725939e-23 2.416058524216e-18 -8.331716876122e-19 0.000000000000e+00 6.840248736847e-05 -3.184840082200e-05 6.673004675871e+05 -3.454285405192e+06 -6.283302661674e+06 -7.187784885175e+06 -1.056208343610e+00 -8.255142473425e+00 3.393226331932e+04 5.641790984014e+06 3.373970471752e+06  3.589715962992e-05
2.130000000000e+02 0.000000000000e+00 5.249463559314e-23 2.554207119061e-18 -8.830384901343e-19 0.000000000000e+00 7.214596167308e-05 -3.339391871370e-05 6.762881883325e+05 -3.457368692483e+06 -6.293119705822e+06 -7.187385234458e+06 -7.795133066146e-01 -8.745295539014e+00 3.532975935651e+04 5.645957877587e+06 3.373552074639e+06  3.780222238372e-05
2.135000000000e+02 0.000000000000e+00 6.005564924511e-23 2.693307281707e-18 -9.401877493719e-19 0.000000000000e+00 7.616333234106e-05 -3.515131549361e-05 6.857635939478e+05 -3.460666373454e+06 -6.301461533991e+06 -7.189115721858e+06 -4.800861421007e-01 -9.237433574587e+00 3.690345170031e+04 5.650414543101e+06 3.373985242557e+06  3.947606404278e-05
2.142500000000e+02 0.000000000000e+00 6.061161770268e-23 2.704435792177e-18 -9.519118177516e-19 0.000000000000e+00 7.643416625335e-05 -3.538435183283e-05 6.873141127331e+05 -3.461644879143e+06 -6.300860130207e+06 -7.192705267903e+06 -3.202505696263e-01 -9.381285327525e+00 3.695226056231e+04 5.651736759085e+06 3.375317424627e+06  3.913798085189e-05
2.153750000000e+02 0.000000000000e+00 6.093493039653e-23 2.721526545114e-18 -9.624771621724e-19 0.000000000000e+00 7.646327739608e-05 -3.545282968084e-05 6.891449779535e+05 -3.463378275769e+06 -6.302809350893e+06 -7.196049391625e+06 -1.604773805357e-01 -9.551708277169e+00 3.700255310668e+04 5.654079006096e+06 3.376484517517e+06  3.912356810937e-05
2.170625000000e+02 0.000000000000e+00 6.104642109561e-23 2.735847982494e-18 -9.710289584406e-19 0.000000000000e+00 7.642767522069e-05 -3.547767526600e-05 6.906339534341e+05 -3.465500701699e+06 -6.305780044906e+06 -7.199559266745e+06 -9.563010151005e-02 -9.672310702110e+00 3.718814207172e+04 5.656946671117e+06 3.377685535989e+06  3.928797472528e-05
2.195937500000e+02 0.000000000000e+00 6.107546983175e-23 2.744550388105e-18 -9.763405583932e-19 0.000000000000e+00 7.638198422394e-05 -3.548826305376e-05 6.915435570108e+05 -3.467427549142e+06 -6.308618583993e+06 -7.202603917733e+06 -8.993253187855e-02 -9.703890292152e+00 3.740075319172e+04 5.659550016956e+06 3.378721035876e+06  3.948923538814e-05
2.233906250000e+02 0.000000000000e+00 6.107825709555e-23 2.748501636788e-18 -9.788267614433e-19 0.000000000000e+00 7.634973730493e-05 -3.549476204194e-05 6.919626982587e+05 -3.468742402689e+06 -6.310585273716e+06 -7.204652010310e+06 -9.625604339760e-02 -9.698566575042e+00 3.755372130205e+04 5.661326562238e+06 3.379416260382e+06  3.963694341659e-05
2.290859375000e+02 0.000000000000e+00 6.107837042839e-23 2.749859847747e-18 -9.797068051739e-19 0.000000000000e+00 7.633370711733e-05 -3.549899517032e-05 6.921092282326e+05 -3.469425925308e+06 -6.311611069647e+06 -7.205713313503e+06 -9.583041729696e-02 -9.697092147504e+00 3.763144437778e+04 5.662250102819e+06 3.379776280951e+06  3.971355113040e-05
2.376289062500e+02 0.000000000000e+00 6.107851710357e-23 2.750217890167e-18 -9.799448942729e-19 0.000000000000e+00 7.632776139489e-05 -3.550113919130e-05 6.921484896642e+05 -3.469700230531e+06 -6.312021596885e+06 -7.206140353515e+06 -9.635892734024e-02 -9.696977248781e+00 3.766056903203e+04 5.662620726977e+06 3.379921138470e+06  3.974299610945e-05
2.504433593750e+02 0.000000000000e+00 6.107851896844e-23 2.750291107192e-18 -9.799947259528e-19 0.000000000000e+00 7.632608943241e-05 -3.550197815159e-05 6.921566411099e+05 -3.469786330888e+06 -6.312149428885e+06 -7.206275423958e+06 -9.627091009511e-02 -9.696930317468e+00 3.766884401973e+04 5.662737061244e+06 3.379966987263e+06  3.975158179422e-05
2.665000000000e+02 0.000000000000e+00 6.107851939726e-23 2.750304987907e-18 -9.800043377269e-19 0.000000000000e+00 7.632574233504e-05 -3.550222783287e-05 6.921582034171e+05 -3.469807350167e+06 -6.312180244392e+06 -7.206308789565e+06 -9.625549198959e-02 -9.696924679092e+00 3.767071376477e+04 5.662765461375e+06 3.379978330431e+06  3.975352326456e-05
2.670000000000e+02 0.000000000000e+00 6.935602736623e-23 2.909741420304e-18 -1.039582269668e-18 0.000000000000e+00 8.070150806134e-05 -3.733736696510e-05 7.026690450380e+05 -3.473438309366e+06 -6.323077782465e+06 -7.206501404583e+06 2.233903641323e-01 -1.025529716202e+01 3.931679651416e+04 5.667672498805e+06 3.379786780197e+06  4.186879616381e-05
2.675000000000e+02 0.000000000000e+00 7.843411265587e-23 3.074713451135e-18 -1.108421257074e-18 0.000000000000e+00 8.534016693704e-05 -3.938335212810e-05 7.141434510556e+05 -3.477466029222e+06 -6.332730999628e+06 -7.209150369036e+06 5.806121679582e-01 -1.081255884613e+01 4.106970899115e+04 5.673115799295e+06 3.380550051470e+06  4.371615121051e-05
2.682500000000e+02 0.000000000000e+00 7.924278950254e-23 3.095701783401e-18 -1.124682626269e-18 0.000000000000e+00 8.557116572949e-05 -3.960273311813e-05 7.166572078784e+05 -3.479006231626e+06 -6.333042536101e+06 -7.213542402940e+06 8.144902179795e-01 -1.099385270402e+01 4.109769860675e+04 5.675197056889e+06 3.382136734619e+06  4.341021147179e-05
2.693750000000e+02 0.000000000000e+00 7.966732537126e-23 3.119503181210e-18 -1.138592777633e-18 0.000000000000e+00 8.556429014719e-05 -3.965686962340e-05 7.191373277698e+05 -3.481286363627e+06 -6.335919428999e+06 -7.217628549300e+06 1.030112572087e+00 -1.121027577266e+01 4.120312615979e+04 5.678278113975e+06 3.383546957379e+06  4.347356349152e-05
2.710625000000e+02 0.000000000000e+00 7.979231410567e-23 3.135940714015e-18 -1.148239940361e-18 0.000000000000e+00 8.551276816514e-05 -3.967346383763e-05 7.208309856121e+05 -3.483612820289e+06 -6.339258597566e+06 -7.221392999818e+06 1.109425411426e+00 -1.134327335029e+01 4.142056634111e+04 5.681421472558e+06 3.384831499505e+06  4.367736809249e-05
2.735937500000e+02 0.000000000000e+00 7.981952685915e-23 3.144093600155e-18 -1.153192881815e-18 0.000000000000e+00 8.546940366143e-05 -3.968087915505e-05 7.216809165263e+05 -3.485346528043e+06 -6.341825699395e+06 -7.224119361044e+06 1.114118677727e+00 -1.137458086151e+01 4.161570250901e+04 5.683763862827e+06 3.385759062566e+06  4.386296721523e-05
2.773906250000e+02 0.000000000000e+00 7.982167145354e-23 3.147101544921e-18 -1.155087377060e-18 0.000000000000e+00 8.544593649239e-05 -3.968575139145e-05 7.220001174658e+05 -3.486316246859e+06 -6.343273392503e+06 -7.225632606333e+06 1.108762416110e+00 -1.137105104952e+01 4.172944095896e+04 5.685074081899e+06 3.386273529173e+06  4.397176136589e-05
2.830859375000e+02 0.000000000000e+00 7.982173823243e-23 3.147946326103e-18 -1.155636802912e-18 0.000000000000e+00 8.543664554330e-05 -3.968855296576e-05 7.220914339670e+05 -3.486732023963e+06 -6.343894369489e+06 -7.226281181172e+06 1.108855208816e+00 -1.137015886132e+01 4.177688024686e+04 5.685635858208e+06 3.386493976108e+06  4.401779817262e-05
2.916289062500e+02 0.000000000000e+00 7.982181425854e-23 3.148130108267e-18 -1.155759674468e-18 0.000000000000e+00 8.543385425936e-05 -3.968973637938e-05 7.221116456125e+05 -3.486870934997e+06 -6.344100918100e+06 -7.226498785353e+06 1.108588914520e+00 -1.137010304983e+01 4.179162352616e+04 5.685823546150e+06 3.386567943450e+06  4.403241693448e-05
3.044433593750e+02 0.000000000000e+00 7.982181504144e-23 3.148161546885e-18 -1.155781213096e-18 0.000000000000e+00 8.543321054661e-05 -3.969012413917e-05 7.221151585337e+05 -3.486907693477e+06 -6.344155069529e+06 -7.226556873814e+06 1.108627505117e+00 -1.137008256230e+01 4.179514179757e+04 5.685873212274e+06 3.386587700637e+06  4.403598403920e-05
3.165000000000e+02 0.000000000000e+00 7.982181613725e-23 3.148168185562e-18 -1.155785803465e-18 0.000000000000e+00 8.543310426400e-05 -3.969021459068e-05 7.221159039112e+05 -3.486915146571e+06 -6.344165895560e+06 -7.226568805167e+06 1.108610673475e+00 -1.137008108916e+01 4.179585079564e+04 5.685883282433e+06 3.386591766317e+06  4.403667590789e-05
3.170000000000e+02 0.000000000000e+00 8.860582239574e-23 3.314725339695e-18 -1.219908783361e-18 0.000000000000e+00 9.000797285228e-05 -4.163445375890e-05 7.332712265376e+05 -3.490800875600e+06 -6.355159420220e+06 -7.227443590856e+06 1.442961620947e+00 -1.193963753123e+01 4.351157704349e+04 5.691134628892e+06 3.386686276646e+06  4.614656982018e-05
3.175000000000e+02 0.000000000000e+00 9.848122987199e-23 3.492401873040e-18 -1.294871723718e-18 0.000000000000e+00 9.479823938813e-05 -4.376051706608e-05 7.459092447421e+05 -3.495268736666e+06 -6.365390643878e+06 -7.230859043434e+06 1.835838093402e+00 -1.250891337956e+01 4.526955921514e+04 5.697172807993e+06 3.387740120775e+06  4.800038581415e-05
3.182500000000e+02 0.000000000000e+00 9.948687399790e-23 3.522199277791e-18 -1.314584848876e-18 0.000000000000e+00 9.496557828134e-05 -4.394349408890e-05 7.492363954131e+05 -3.497242777556e+06 -6.366626906377e+06 -7.235651326926e+06 2.119865247243e+00 -1.270270757057e+01 4.529489997541e+04 5.699840336953e+06 3.389437783248e+06  4.777064273008e-05
3.193750000000e+02 0.000000000000e+00 9.994655300634e-23 3.548854701268e-18 -1.329702199322e-18 0.000000000000e+00 9.493301896871e-05 -4.398043498797e-05 7.519743549590e+05 -3.499666521076e+06 -6.369854428603e+06 -7.239825561481e+06 2.361246700072e+00 -1.292966883561e+01 4.542815037920e+04 5.703115503720e+06 3.390870120352e+06  4.788269278768e-05
3.210625000000e+02 0.000000000000e+00 1.000598190039e-22 3.563943270772e-18 -1.338485144885e-18 0.000000000000e+00 9.488280007752e-05 -4.399066412214e-05 7.535225440726e+05 -3.501708626202e+06 -6.372814986584e+06 -7.243100443345e+06 2.439396309373e+00 -1.304848957262e+01 4.562384675265e+04 5.705874685377e+06 3.391986914161e+06  4.806988227714e-05
3.235937500000e+02 0.000000000000e+00 1.000803641683e-22 3.570077605460e-18 -1.342209589570e-18 0.000000000000e+00 9.485122833044e-05 -4.399582937935e-05 7.541617899148e+05 -3.502967949089e+06 -6.374678308317e+06 -7.245082149181e+06 2.442474065173e+00 -1.307333490558e+01 4.576655811926e+04 5.707576135529e+06 3.392661889146e+06  4.820482291831e-05
3.273906250000e+02 0.000000000000e+00 1.000817089925e-22 3.571947322150e-18 -1.343390501392e-18 0.000000000000e+00 9.483753715361e-05 -4.399906350745e-05 7.543604822996e+05 -3.503556056383e+06 -6.375552409860e+06 -7.246003770058e+06 2.438861906331e+00 -1.307138932084e+01 4.583570957313e+04 5.708370745434e+06 3.392975758028e+06  4.827003678446e-05
3.330859375000e+02 0.000000000000e+00 1.000817419414e-22 3.572385796925e-18 -1.343676978685e-18 0.000000000000e+00 9.483309131677e-05 -4.400063774038e-05 7.544079935093e+05 -3.503768574478e+06 -6.375867888609e+06 -7.246337202919e+06 2.438846129270e+00 -1.307093398704e+01 4.585995450140e+04 5.708657888669e+06 3.393089303983e+06  4.829314370753e-05
3.416289062500e+02 0.000000000000e+00 1.000817756076e-22 3.572466460739e-18 -1.343731216957e-18 0.000000000000e+00 9.483198092347e-05 -4.400119808261e-05 7.544168921782e+05 -3.503829088142e+06 -6.375957224796e+06 -7.246432639945e+06 2.438730113651e+00 -1.307091028896e+01 4.586635738085e+04 5.708739650961e+06 3.393121804858e+06  4.829936104765e-05
3.544433593750e+02 0.000000000000e+00 1.000817758940e-22 3.572478300321e-18 -1.343739381003e-18 0.000000000000e+00 9.483176525525e-05 -4.400135510073e-05 7.544182198896e+05 -3.503842913956e+06 -6.375977432418e+06 -7.246454648648e+06 2.438744867263e+00 -1.307090246969e+01 4.586767297806e+04 5.708758331674e+06 3.393129303046e+06  4.830066362236e-05