 TITLE = "Time curves in points"
 VARIABLES = "TIME"  "STRAIN_PLS"  "PRESSURE1"  "STRESS_XX"  "STRESS_YY"  "STRESS_ZZ"  "STRESS_XY"  "STRESS_XZ"  "STRESS_YZ"  "VELOCITY_X1"  "VELOCITY_Y1"  "VELOCITY_Z1"  "DISPLACEMENT_X1"  "DISPLACEMENT_Y1"  "DISPLACEMENT_Z1"  p_(1st_Invariant)  q_(2nd_Invariant)   Effective_Strain
 ZONE T="POINT=POINTMONITORING2"
0.000000000000e+00 0.000000000000e+00 5.000000000000e+05 -3.300000000000e+06 -6.000000000000e+06 -7.000000000000e+06 0.000000000000e+00 0.000000000000e+00 0.000000000000e+00 0.000000000000e+00 0.000000000000e+00 0.000000000000e+00 0.000000000000e+00 0.000000000000e+00 0.000000000000e+00 5.433333333333e+06 3.315116890850e+06  0.000000000000e+00
5.000000000000e-02 0.000000000000e+00 5.000000000000e+05 -3.300000000000e+06 -6.000000000000e+06 -7.000000000000e+06 8.431463208217e-10 3.302725134933e-10 -2.195471025269e-09 2.969508503232e-20 2.016286916045e-19 -7.856024192678e-20 0.000000000000e+00 -1.154580110367e-20 -1.025755147948e-19 5.433333333333e+06 3.315116890850e+06  1.513700930171e-17
1.000000000000e-01 0.000000000000e+00 5.000000000000e+05 -3.300000000000e+06 -6.000000000000e+06 -7.000000000000e+06 8.560302776234e-10 3.648346512761e-10 -2.227939878313e-09 3.418521209228e-20 4.729161805745e-20 -1.430390215779e-20 0.000000000000e+00 -1.221908379278e-19 -2.911463646998e-21 5.433333333333e+06 3.315116890850e+06  1.526217848341e-17
1.500000000000e-01 0.000000000000e+00 4.999981338235e+05 -3.300001376912e+06 -5.999996917258e+06 -7.000000328918e+06 2.790417001557e-07 3.147137239865e-07 -2.403568252569e+00 6.455962750748e-17 1.231838417453e-11 7.307189784730e-11 0.000000000000e+00 -4.762972027071e-10 -1.289093276124e-09 5.433332874363e+06 3.315115004499e+06  1.489395893958e-08
2.000000000000e-01 0.000000000000e+00 4.999933886565e+05 -3.300004889373e+06 -5.999989021438e+06 -7.000001199815e+06 9.724319495314e-07 1.242304330259e-06 -8.580945594979e+00 2.209620755545e-16 4.302089657940e-11 2.595186496352e-10 0.000000000000e+00 -1.748577276529e-09 -4.703316224079e-09 5.433331703542e+06 3.315110206918e+06  5.314687955232e-08
2.750000000000e-01 0.000000000000e+00 4.999884267264e+05 -3.300008553974e+06 -5.999980777505e+06 -7.000002114546e+06 1.388911872410e-06 1.046470081395e-06 -1.503012554030e+01 1.362006015205e-16 7.232916349613e-11 4.553621427551e-10 0.000000000000e+00 -3.081036289618e-09 -8.275515972226e-09 5.433330482008e+06 3.315105204364e+06  9.308341185160e-08
3.875000000000e-01 0.000000000000e+00 4.999828923434e+05 -3.300012608083e+06 -5.999971663084e+06 -7.000003120741e+06 8.383314409924e-06 -3.882226390499e-06 -2.215166273135e+01 8.452578097084e-16 1.030587654555e-10 6.717485367529e-10 0.000000000000e+00 -4.537565295797e-09 -1.218789582032e-08 5.433329130636e+06 3.315099667558e+06  1.371937892675e-07
5.562500000000e-01 0.000000000000e+00 4.999764117473e+05 -3.300017294282e+06 -5.999961135598e+06 -7.000004275782e+06 4.350596874704e-05 -2.872966349506e-05 -3.036202985496e+01 5.222948631705e-15 1.380568922611e-10 9.201508146490e-10 0.000000000000e+00 -6.193200918888e-09 -1.664760721350e-08 5.433327568554e+06 3.315093263944e+06  1.880664710378e-07
8.093750000000e-01 0.000000000000e+00 4.999685713081e+05 -3.300022853818e+06 -5.999948667216e+06 -7.000005624984e+06 1.034270081958e-04 4.869899709237e-05 -4.005355333398e+01 1.661949891623e-14 1.793520961376e-10 1.211860865563e-09 0.000000000000e+00 -8.095003715658e-09 -2.179906166759e-08 5.433325715339e+06 3.315085657505e+06  2.481555632007e-07
1.189062500000e+00 0.000000000000e+00 4.999588607001e+05 -3.300029548992e+06 -5.999933705296e+06 -7.000007196703e+06 -2.311805582902e-04 1.805189117719e-04 -5.164016368820e+01 8.284103785144e-15 2.286101232900e-10 1.558886565571e-09 0.000000000000e+00 -1.026899345935e-08 -2.774181565019e-08 5.433323483663e+06 3.315076473553e+06  3.200471997015e-07
1.758593750000e+00 0.000000000000e+00 4.999465924311e+05 -3.300037695286e+06 -5.999915577855e+06 -7.000009031868e+06 -1.109646787516e-04 1.617068551604e-03 -6.561715299506e+01 2.243492176680e-15 2.896928946227e-10 1.978261067059e-09 0.000000000000e+00 -1.274796148543e-08 -3.459458496058e-08 5.433320768336e+06 3.315065264434e+06  4.068456486263e-07
2.612890625000e+00 0.000000000000e+00 4.999307071060e+05 -3.300047722122e+06 -5.999893424161e+06 -7.000011132155e+06 -2.174597214679e-04 1.393168854138e-03 -8.276429305687e+01 -1.232979214037e-14 3.749796657658e-10 2.488059691795e-09 0.000000000000e+00 -1.562829805710e-08 -4.262724802894e-08 5.433317426146e+06 3.315051396385e+06  5.132577337580e-07
3.894335937500e+00 0.000000000000e+00 4.999092189786e+05 -3.300060278320e+06 -5.999865805906e+06 -7.000013638769e+06 -1.940380586303e-03 1.926575137536e-03 -1.043877375943e+02 -5.979968231169e-14 4.998657292962e-10 3.049025216611e-09 0.000000000000e+00 -1.913068444603e-08 -5.241611620292e-08 5.433313240998e+06 3.315033974882e+06  6.471596574472e-07
5.816503906250e+00 0.000000000000e+00 4.998788688883e+05 -3.300076547880e+06 -5.999829814660e+06 -7.000017090611e+06 -4.232492999759e-03 2.638667732877e-03 -1.327920554076e+02 -5.954808425109e-14 6.280288989188e-10 3.588765335591e-09 0.000000000000e+00 -2.360312862803e-08 -6.489449116748e-08 5.433307817717e+06 3.315011494250e+06  8.227800339703e-07
8.699755859375e+00 0.000000000000e+00 4.998366125874e+05 -3.300098257942e+06 -5.999781461651e+06 -7.000022016890e+06 -1.629217066222e-02 8.903262575826e-03 -1.707290585073e+02 2.387351852788e-13 6.977995798222e-10 4.573029453781e-09 0.000000000000e+00 -2.947854746907e-08 -8.115013337866e-08 5.433300578828e+06 3.314981641401e+06  1.057588025651e-06
1.302463378906e+01 0.000000000000e+00 4.997741032753e+05 -3.300127270663e+06 -5.999717009253e+06 -7.000028428569e+06 -3.966985201354e-02 1.692166158599e-02 -2.213003349025e+02 3.597870533198e-13 8.616689214937e-10 6.388021237773e-09 0.000000000000e+00 -3.732892726326e-08 -1.025216864520e-07 5.433290902829e+06 3.314941671013e+06  1.370596183000e-06
1.951195068359e+01 0.000000000000e+00 4.996695290830e+05 -3.300168231968e+06 -5.999625415109e+06 -7.000038089459e+06 -5.046156910411e-02 2.264172974611e-02 -2.937240096587e+02 3.337727337132e-13 1.202911784602e-09 8.165146870870e-09 0.000000000000e+00 -4.780011077210e-08 -1.308057488968e-07 5.433277245512e+06 3.314885524617e+06  1.818189830610e-06
2.250000000000e+01 0.000000000000e+00 4.996189489471e+05 -3.300186910512e+06 -5.999583547061e+06 -7.000042595808e+06 -5.693697439329e-02 2.610718089940e-02 -3.269727268754e+02 3.625021745355e-13 1.384558565644e-09 8.781080502924e-09 0.000000000000e+00 -5.275953195150e-08 -1.440548925462e-07 5.433271017794e+06 3.314859970129e+06  2.023504973239e-06
2.300000000000e+01 0.000000000000e+00 4.994362804375e+05 -3.300313585383e+06 -5.999302713507e+06 -7.000070087209e+06 -5.438800420919e-02 6.102844492480e-02 -5.435461947482e+02 1.863630726885e-13 2.524037650432e-09 1.554026985816e-08 0.000000000000e+00 -9.000638454602e-08 -2.472836393136e-07 5.433228795366e+06 3.314685324088e+06  3.368431169067e-06
2.350000000000e+01 0.000000000000e+00 4.987698662704e+05 -3.300772716167e+06 -5.998289889794e+06 -7.000164676284e+06 -4.307397621569e-02 1.776087260097e-01 -1.336868083081e+03 -3.155728019250e-13 8.166453345329e-09 4.023642616126e-08 0.000000000000e+00 -2.267602390450e-07 -6.195034057629e-07 5.433075760748e+06 3.314050662535e+06  8.280578725476e-06
2.425000000000e+01 0.000000000000e+00 4.975852901431e+05 -3.301535140007e+06 -5.996585072751e+06 -7.000344688815e+06 -3.399433060542e-02 3.032851185571e-01 -2.624102518113e+03 -1.484665784801e-12 8.110467129355e-09 8.977926530541e-08 0.000000000000e+00 -4.137819549960e-07 -1.114193806084e-06 5.432821633858e+06 3.313009274109e+06  1.630693458503e-05
2.537500000000e+01 0.000000000000e+00 4.942794411343e+05 -3.303253824135e+06 -5.992619159005e+06 -7.000873305658e+06 -2.133560605876e-01 3.480379528149e-01 -5.690635741745e+03 -6.461890968257e-12 -1.509834475208e-08 1.205840816581e-08 0.000000000000e+00 -6.541660893328e-07 -1.796606904835e-06 5.432248762932e+06 3.310728504332e+06  3.533617709391e-05
2.706250000000e+01 0.000000000000e+00 4.922278113020e+05 -3.305751385988e+06 -5.989752334875e+06 -6.998744595197e+06 9.444686302798e-02 6.669421944983e-02 -8.291655216936e+03 7.545661437513e-13 2.775486285816e-07 1.659525734863e-06 0.000000000000e+00 -1.082688969227e-06 -2.757523985723e-06 5.431416105353e+06 3.306095720601e+06  5.135051243330e-05
2.959375000000e+01 0.000000000000e+00 5.514836790037e+05 -3.347277776165e+06 -5.891588409155e+06 -7.013857491167e+06 6.370002183228e+00 -2.984234340055e+00 -7.897728003150e+04 -1.076672224652e-10 8.665099837948e-06 3.999878871484e-05 0.000000000000e+00 -1.192501575711e-06 -4.937492418317e-06 5.417574558829e+06 3.256857055576e+06  4.960676333354e-04
3.339062500000e+01 0.000000000000e+00 1.077549895433e+06 -3.489106052684e+06 -5.566591294384e+06 -7.055199825176e+06 1.152960337633e+01 -5.035935003382e+00 -2.903130221340e+05 -5.129545759270e-10 -4.490056552583e-05 -1.594169475480e-04 0.000000000000e+00 -1.121070665173e-06 -3.796150632032e-06 5.370299057415e+06 3.142818399741e+06  1.858521537602e-03
3.908593750000e+01 0.000000000000e+00 1.470192850337e+06 -3.599010007737e+06 -5.314506407245e+06 -7.087477527705e+06 1.498739145690e+01 -6.629830316802e+00 -4.554010723574e+05 -1.999719248396e-10 -1.310883575018e-04 -2.569486083354e-04 0.000000000000e+00 -1.056233256021e-06 -3.248156021097e-06 5.333664647562e+06 3.122507081691e+06  2.921220876059e-03
4.762890625000e+01 0.000000000000e+00 1.638180409583e+06 -3.647674640942e+06 -5.202983768533e+06 -7.101671186651e+06 1.693793000673e+01 -7.513572875899e+00 -5.292761454402e+05 5.277201163383e-11 -1.866207831856e-04 -2.903199052662e-04 0.000000000000e+00 -9.260109797150e-07 -3.065154141669e-06 5.317443198709e+06 3.133280386649e+06  3.395436940757e-03
6.044335937500e+01 0.000000000000e+00 1.693784247482e+06 -3.664059994200e+06 -5.165688498006e+06 -7.106195987711e+06 1.803446940646e+01 -8.004329778535e+00 -5.547464651614e+05 2.776273749180e-11 -1.695938538483e-04 -2.675944415250e-04 0.000000000000e+00 -6.865756269979e-07 -2.848824068166e-06 5.311981493306e+06 3.139683067195e+06  3.557735078726e-03
7.966503906250e+01 0.000000000000e+00 1.730400724934e+06 -3.674416523341e+06 -5.142288907403e+06 -7.108882532470e+06 1.852179354124e+01 -8.228751837563e+00 -5.711649346350e+05 1.757173227890e-12 -1.107283104674e-04 -2.075675410866e-04 0.000000000000e+00 -3.518073891999e-07 -2.526057962607e-06 5.308529321071e+06 3.144445331669e+06  3.661689903582e-03
9.950000000000e+01 0.000000000000e+00 1.763788423075e+06 -3.682736714484e+06 -5.123380274617e+06 -7.111150880297e+06 1.894788306825e+01 -8.423157177252e+00 -5.840512433497e+05 -3.084396897633e-12 -7.557185236829e-05 -1.691758717699e-04 0.000000000000e+00 -8.973991279368e-08 -2.290066777780e-06 5.305755956466e+06 3.148603235741e+06  3.743844804237e-03
1.000000000000e+02 0.000000000000e+00 1.809385215881e+06 -3.701044037764e+06 -5.081700002182e+06 -7.116216695828e+06 1.903775032795e+01 -7.734850756588e+00 -6.126236419124e+05 -1.738289875990e-11 -1.065886068485e-04 -3.803860061234e-04 0.000000000000e+00 -4.697299489679e-07 -3.490248386133e-06 5.299653578591e+06 3.159170754763e+06  3.925748882753e-03
1.005000000000e+02 0.000000000000e+00 2.149249018305e+06 -3.813601591539e+06 -4.824066277973e+06 -7.148735858969e+06 1.929331183307e+01 -5.792289987823e+00 -7.855090891750e+05 -6.878770691123e-11 -4.703001889121e-04 -2.047703272425e-03 0.000000000000e+00 -1.186947782990e-06 -5.964068408818e-06 5.262134576160e+06 3.259631520787e+06  5.032042643698e-03
1.012500000000e+02 0.000000000000e+00 2.802811341524e+06 -4.004594671416e+06 -4.385818407221e+06 -7.204997463855e+06 1.942271179913e+01 -5.047712828864e+00 -1.074639114400e+06 2.668462025029e-10 -1.784334868210e-03 -3.990504877001e-03 0.000000000000e+00 -1.195440279327e-06 -5.978371148223e-06 5.198470180831e+06 3.554207048243e+06  6.889844192681e-03
1.023750000000e+02 0.000000000000e+00 3.108088527681e+06 -4.093326818490e+06 -4.182498377819e+06 -7.230853479102e+06 1.967815241839e+01 -5.197660053254e+00 -1.209552963970e+06 -1.901096652266e-10 -2.297204723095e-03 -4.149973985032e-03 0.000000000000e+00 -9.368041941901e-07 -5.739086892767e-06 5.168892891804e+06 3.736482582252e+06  7.755515476089e-03
1.040625000000e+02 0.000000000000e+00 3.232753205530e+06 -4.128805201059e+06 -4.101497986614e+06 -7.240897038054e+06 1.796916694554e+01 -4.440974156300e+00 -1.264231919591e+06 -6.160042208022e-11 -1.814682658038e-03 -3.559627286941e-03 0.000000000000e+00 -5.231173974245e-07 -5.467898780893e-06 5.157066741909e+06 3.816502441448e+06  8.104906080961e-03
1.065937500000e+02 0.000000000000e+00 3.318200386451e+06 -4.149970561857e+06 -4.053208674510e+06 -7.246853351639e+06 1.893081223257e+01 -4.886060884943e+00 -1.296779787446e+06 3.900648385785e-10 -1.282054678582e-03 -2.915586402359e-03 0.000000000000e+00 -5.274120081099e-08 -5.228183057381e-06 5.150010862669e+06 3.865827149868e+06  8.312958902798e-03
1.103906250000e+02 0.000000000000e+00 3.376058671562e+06 -4.159311794572e+06 -4.031933842850e+06 -7.249445974147e+06 2.203785950654e+01 -6.008271892674e+00 -1.310938680248e+06 8.281647240430e-11 -1.072356513098e-03 -2.427828208868e-03 0.000000000000e+00 5.222934368176e-07 -5.026245926613e-06 5.146897203856e+06 3.887730703685e+06  8.403745355750e-03
1.160859375000e+02 0.000000000000e+00 3.421297422989e+06 -4.160376021952e+06 -4.029793262946e+06 -7.249456798983e+06 2.077580896602e+01 -5.637674367502e+00 -1.312670423506e+06 2.292186208197e-11 -9.329762975883e-04 -1.961255915656e-03 0.000000000000e+00 1.452401946722e-06 -4.621159905949e-06 5.146542027960e+06 3.890008164293e+06  8.414373144962e-03
1.246289062500e+02 0.000000000000e+00 3.459374148498e+06 -4.156959655511e+06 -4.038051986491e+06 -7.248029623250e+06 1.874430279768e+01 -4.824352045687e+00 -1.307736616431e+06 2.170702597379e-11 -7.545601791303e-04 -1.614058026545e-03 0.000000000000e+00 2.615295092829e-06 -3.977447747389e-06 5.147680421751e+06 3.881614313509e+06  8.381865652575e-03
1.374433593750e+02 0.000000000000e+00 3.481291957238e+06 -4.157150566451e+06 -4.037792427676e+06 -7.247907605375e+06 1.888867758323e+01 -4.903805410495e+00 -1.308123565237e+06 -2.250065876353e-12 -6.353241802997e-04 -1.409742176268e-03 0.000000000000e+00 3.104158739151e-06 -3.732230286648e-06 5.147616866501e+06 3.881944645851e+06  8.384014869852e-03
1.565000000000e+02 0.000000000000e+00 3.497887995913e+06 -4.159911198898e+06 -4.031542485916e+06 -7.248637476240e+06 1.873059267329e+01 -4.789526415840e+00 -1.312366643534e+06 -5.961326771506e-12 -5.674564626981e-04 -1.271886667320e-03 0.000000000000e+00 3.292282293824e-06 -3.616160225652e-06 5.146697053685e+06 3.888460232803e+06  8.411091651907e-03
1.570000000000e+02 0.000000000000e+00 3.586444307689e+06 -4.187706187067e+06 -3.967893427060e+06 -7.256696643782e+06 1.877275108206e+01 -4.488753862036e+00 -1.354835791222e+06 -4.349085905434e-12 -8.750819066487e-04 -2.107709183357e-03 0.000000000000e+00 3.179848613046e-06 -4.028737241593e-06 5.137432085970e+06 3.955801233662e+06  8.683226696818e-03
1.575000000000e+02 0.000000000000e+00 3.739249296845e+06 -4.234609911626e+06 -3.860441431313e+06 -7.270341311751e+06 1.883332660778e+01 -4.062726912640e+00 -1.426375402020e+06 -6.428340279983e-12 -1.385525492294e-03 -3.254590818351e-03 0.000000000000e+00 3.076358917848e-06 -4.493488970405e-06 5.121797551563e+06 4.073718516732e+06  9.141883541065e-03
1.582500000000e+02 0.000000000000e+00 3.833407931817e+06 -4.261937325087e+06 -3.797818012391e+06 -7.278309920331e+06 1.884742507836e+01 -3.981615562857e+00 -1.467973660999e+06 3.032879549082e-12 -1.460073604173e-03 -3.186912805604e-03 0.000000000000e+00 3.152953510756e-06 -4.506292769964e-06 5.112688419270e+06 4.144720395246e+06  9.408728008132e-03
1.593750000000e+02 0.000000000000e+00 3.882253261852e+06 -4.275123380628e+06 -3.767630348419e+06 -7.282125501199e+06 1.891417572229e+01 -4.013823485378e+00 -1.488095260423e+06 -1.100411190461e-11 -1.329902093160e-03 -2.882300858041e-03 0.000000000000e+00 3.278089094485e-06 -4.465826348176e-06 5.108293076749e+06 4.179584437273e+06  9.537696290782e-03
1.610625000000e+02 0.000000000000e+00 3.911379614645e+06 -4.281977424765e+06 -3.751962659113e+06 -7.284085102075e+06 1.887556767879e+01 -3.998214862888e+00 -1.498587531677e+06 -4.824973801558e-12 -1.186170220087e-03 -2.595869102331e-03 0.000000000000e+00 3.427658863709e-06 -4.415316445908e-06 5.106008395318e+06 4.197859136088e+06  9.604869910842e-03
1.635937500000e+02 0.000000000000e+00 3.930529015308e+06 -4.285783550566e+06 -3.743281391125e+06 -7.285153915772e+06 1.880763864608e+01 -3.959002500553e+00 -1.504432489838e+06 3.850437027752e-11 -1.071370479976e-03 -2.369507836391e-03 0.000000000000e+00 3.576126491018e-06 -4.362819447170e-06 5.104739619154e+06 4.208045559558e+06  9.642242120222e-03
1.673906250000e+02 0.000000000000e+00 3.943080302679e+06 -4.288013855202e+06 -3.738206362091e+06 -7.285768241935e+06 1.904440231948e+01 -4.033768743427e+00 -1.507863446890e+06 2.355838391360e-11 -9.904593072209e-04 -2.209650697468e-03 0.000000000000e+00 3.693204657816e-06 -4.317930748964e-06 5.103996153076e+06 4.214019932502e+06  9.664157935150e-03
1.730859375000e+02 0.000000000000e+00 3.950501256980e+06 -4.289309171489e+06 -3.735262116735e+06 -7.286121799764e+06 1.918400960386e+01 -4.111323978815e+00 -1.509854904320e+06 4.659552997783e-12 -9.421521138286e-04 -2.113773235497e-03 0.000000000000e+00 3.765285859487e-06 -4.287602238955e-06 5.103564362663e+06 4.217489155371e+06  9.676877201908e-03
1.816289062500e+02 0.000000000000e+00 3.954161502008e+06 -4.289970086231e+06 -3.733759697631e+06 -7.286302367407e+06 1.921711978533e+01 -4.129578710750e+00 -1.510869404990e+06 7.918710949795e-13 -9.189688977964e-04 -2.067397067642e-03 0.000000000000e+00 3.800012221959e-06 -4.271307074206e-06 5.103344050423e+06 4.219259100370e+06  9.683359373449e-03
1.944433593750e+02 0.000000000000e+00 3.955614729795e+06 -4.290245552156e+06 -3.733133295501e+06 -7.286377846900e+06 1.923327686165e+01 -4.137181615375e+00 -1.511291751478e+06 -1.438719103011e-13 -9.101915650414e-04 -2.049648137144e-03 0.000000000000e+00 3.813225659894e-06 -4.264197328818e-06 5.103252231519e+06 4.219996812025e+06  9.686058933270e-03
2.125000000000e+02 0.000000000000e+00 3.956074865486e+06 -4.290337442353e+06 -3.732924328493e+06 -7.286403055372e+06 1.923543874081e+01 -4.137380235901e+00 -1.511432555721e+06 -1.129432802352e-13 -9.075769761880e-04 -2.044287946570e-03 0.000000000000e+00 3.817218166223e-06 -4.261730260636e-06 5.103221608740e+06 4.220242873619e+06  9.686959070996e-03
2.130000000000e+02 0.000000000000e+00 4.050353899076e+06 -4.319690848341e+06 -3.665696004473e+06 -7.294924650394e+06 1.927692932047e+01 -3.845111927066e+00 -1.556251825280e+06 -4.177299097029e-12 -1.342572154486e-03 -3.152770036268e-03 0.000000000000e+00 3.718654202166e-06 -4.639793056763e-06 5.093437167736e+06 4.300147931264e+06  9.974212495098e-03
2.135000000000e+02 0.000000000000e+00 4.198332504429e+06 -4.364839997748e+06 -3.562264421116e+06 -7.308058043832e+06 1.933202488550e+01 -3.463623031045e+00 -1.625109079708e+06 -5.687924955093e-12 -1.955338695007e-03 -4.491922407215e-03 0.000000000000e+00 3.644264074111e-06 -5.045773661335e-06 5.078387487565e+06 4.426257279858e+06  1.041568095695e-02
2.142500000000e+02 0.000000000000e+00 4.274073705830e+06 -4.386469446959e+06 -3.512709102981e+06 -7.314354472181e+06 1.934144279996e+01 -3.415700899942e+00 -1.658053930807e+06 2.459676253278e-12 -1.940179862504e-03 -4.254914355323e-03 0.000000000000e+00 3.736240168309e-06 -5.042136961212e-06 5.071177674040e+06 4.487946768840e+06  1.062697312489e-02
2.153750000000e+02 0.000000000000e+00 4.310593403787e+06 -4.395873134450e+06 -3.491189079907e+06 -7.317067140905e+06 1.939618392530e+01 -3.439561154930e+00 -1.672418697616e+06 -8.188253022499e-12 -1.761005348337e-03 -3.865793856515e-03 0.000000000000e+00 3.862362317164e-06 -5.003081047669e-06 5.068043118421e+06 4.515034684399e+06  1.071901132605e-02
2.170625000000e+02 0.000000000000e+00 4.331522072669e+06 -4.400460529656e+06 -3.480708836211e+06 -7.318372601686e+06 1.941602245963e+01 -3.453732554499e+00 -1.679450787515e+06 -4.716870980488e-12 -1.604634537024e-03 -3.554417994943e-03 0.000000000000e+00 3.992614437800e-06 -4.961061145491e-06 5.066513989184e+06 4.528308011994e+06  1.076401096193e-02
2.195937500000e+02 0.000000000000e+00 4.344419802698e+06 -4.402908359530e+06 -3.475127993812e+06 -7.319057686584e+06 1.933880376359e+01 -3.416669972408e+00 -1.683213429858e+06 2.207205714358e-11 -1.494540441387e-03 -3.336744535688e-03 0.000000000000e+00 4.100053695640e-06 -4.924338569612e-06 5.065698013309e+06 4.535402049031e+06  1.078806109636e-02
2.233906250000e+02 0.000000000000e+00 4.351973610081e+06 -4.404258547801e+06 -3.472054876727e+06 -7.319430378447e+06 1.946630070851e+01 -3.457036288205e+00 -1.685290228044e+06 1.338502736088e-11 -1.427753179556e-03 -3.204325647371e-03 0.000000000000e+00 4.169504814697e-06 -4.898545012708e-06 5.065247934325e+06 4.539314246480e+06  1.080132817209e-02
2.290859375000e+02 0.000000000000e+00 4.355794254695e+06 -4.404948058541e+06 -3.470486465622e+06 -7.319619743197e+06 1.954420491971e+01 -3.499335331925e+00 -1.686349578058e+06 2.347398905900e-12 -1.394469479992e-03 -3.137881352229e-03 0.000000000000e+00 4.204764029642e-06 -4.884117145680e-06 5.065018089120e+06 4.541310707570e+06  1.080809644879e-02
2.376289062500e+02 0.000000000000e+00 4.357378103043e+06 -4.405245218097e+06 -3.469810382376e+06 -7.319701498580e+06 1.956029269012e+01 -3.507967618533e+00 -1.686805383110e+06 3.536817402517e-13 -1.381236228817e-03 -3.111194037255e-03 0.000000000000e+00 4.218888902231e-06 -4.877622445426e-06 5.064919033018e+06 4.542170723049e+06  1.081100991864e-02
2.504433593750e+02 0.000000000000e+00 4.357908220452e+06 -4.405349497927e+06 -3.469573061670e+06 -7.319730262966e+06 1.956624865993e+01 -3.510757599966e+00 -1.686965160260e+06 -4.046754267210e-15 -1.377049374502e-03 -3.102641722332e-03 0.000000000000e+00 4.223401263664e-06 -4.875220323900e-06 5.064884274188e+06 4.542472452912e+06  1.081203154267e-02
2.665000000000e+02 0.000000000000e+00 4.358050259974e+06 -4.405378871838e+06 -3.469506187426e+06 -7.319738393636e+06 1.956894912135e+01 -3.511828355842e+00 -1.687010137382e+06 -6.098319885181e-14 -1.376001939586e-03 -3.100467561463e-03 0.000000000000e+00 4.224534393039e-06 -4.874549899616e-06 5.064874484300e+06 4.542557449809e+06  1.081231920075e-02
2.670000000000e+02 0.000000000000e+00 4.482299744843e+06 -4.443761193690e+06 -3.381591986454e+06 -7.330888052885e+06 1.962017943276e+01 -3.152833785759e+00 -1.745593038069e+06 -5.155190136872e-12 -2.089119682740e-03 -4.841184398006e-03 0.000000000000e+00 4.121032499998e-06 -5.315064855139e-06 5.052080411010e+06 4.655277364234e+06  1.118782791022e-02
2.675000000000e+02 0.000000000000e+00 4.665860181673e+06 -4.499370122878e+06 -3.254201024375e+06 -7.347061282235e+06 1.968433791061e+01 -2.711870031225e+00 -1.830401029639e+06 -6.363609822828e-12 -3.014107961372e-03 -6.829570172013e-03 0.000000000000e+00 4.063693766770e-06 -5.772073886417e-06 5.033544143163e+06 4.822525463463e+06  1.173156179789e-02
2.682500000000e+02 0.000000000000e+00 4.744693438438e+06 -4.521334150928e+06 -3.203891825878e+06 -7.353442426346e+06 1.969130558327e+01 -2.687507518368e+00 -1.863878715427e+06 2.776877936751e-12 -2.866860446991e-03 -6.287848476482e-03 0.000000000000e+00 4.202818761667e-06 -5.750069983294e-06 5.026222801051e+06 4.889760983253e+06  1.194622201311e-02
2.693750000000e+02 0.000000000000e+00 4.780071335575e+06 -4.529877537812e+06 -3.184350816641e+06 -7.355896680206e+06 1.974428968158e+01 -2.707461750804e+00 -1.876947742273e+06 -7.322342322535e-12 -2.574375654263e-03 -5.680000206654e-03 0.000000000000e+00 4.365097854937e-06 -5.700966450237e-06 5.023375011553e+06 4.916107108685e+06  1.202991893034e-02
2.710625000000e+02 0.000000000000e+00 4.799432614031e+06 -4.533802219717e+06 -3.175390779092e+06 -7.357007368469e+06 1.980644935251e+01 -2.746217394378e+00 -1.882974199507e+06 -5.870658413167e-12 -2.358611041233e-03 -5.252170711758e-03 0.000000000000e+00 4.507331609318e-06 -5.656369444973e-06 5.022066789093e+06 4.928247014557e+06  1.206846111729e-02
2.735937500000e+02 0.000000000000e+00 4.810432757587e+06 -4.535811239249e+06 -3.170811965612e+06 -7.357568095702e+06 1.970338080676e+01 -2.701308409758e+00 -1.886065031108e+06 1.503033820170e-11 -2.225792654248e-03 -4.989222435310e-03 0.000000000000e+00 4.604051641875e-06 -5.624158029694e-06 5.021397100187e+06 4.934466003460e+06  1.208821138551e-02
2.773906250000e+02 0.000000000000e+00 4.816096098227e+06 -4.536831938393e+06 -3.168488165762e+06 -7.357850465452e+06 1.978620392328e+01 -2.727303331593e+00 -1.887634767242e+06 9.411888527449e-12 -2.157345349785e-03 -4.852889106418e-03 0.000000000000e+00 4.655287402626e-06 -5.605574970535e-06 5.021056856536e+06 4.937623759339e+06  1.209824026201e-02
2.830859375000e+02 0.000000000000e+00 4.818537432935e+06 -4.537286251156e+06 -3.167454088402e+06 -7.357975903278e+06 1.983911340046e+01 -2.755535231076e+00 -1.888332333178e+06 1.321731852859e-12 -2.128887374073e-03 -4.795641119589e-03 0.000000000000e+00 4.676744060429e-06 -5.596945643751e-06 5.020905414278e+06 4.939028110581e+06  1.210269841378e-02
2.916289062500e+02 0.000000000000e+00 4.819392738189e+06 -4.537452752826e+06 -3.167074987142e+06 -7.358021996884e+06 1.984862892030e+01 -2.760533742865e+00 -1.888587554666e+06 -1.348685545410e-14 -2.119441695916e-03 -4.776398163470e-03 0.000000000000e+00 4.683907950041e-06 -5.593679078626e-06 5.020849912284e+06 4.939542520918e+06  1.210433032450e-02
3.044433593750e+02 0.000000000000e+00 4.819635567204e+06 -4.537502255838e+06 -3.166962246915e+06 -7.358035732587e+06 1.985136439970e+01 -2.761810375135e+00 -1.888663358049e+06 1.016861498792e-14 -2.116920586651e-03 -4.771187927299e-03 0.000000000000e+00 4.685840752828e-06 -5.592649719105e-06 5.020833411780e+06 4.939695418468e+06  1.210481516783e-02
3.165000000000e+02 0.000000000000e+00 4.819690523488e+06 -4.537514013447e+06 -3.166935445780e+06 -7.358039018508e+06 1.985176115360e+01 -2.762008288828e+00 -1.888681350477e+06 2.430170556258e-13 -2.116392228141e-03 -4.770075163775e-03 0.000000000000e+00 4.686237014078e-06 -5.592435981349e-06 5.020829492579e+06 4.939731750607e+06  1.210493029126e-02
3.170000000000e+02 0.000000000000e+00 4.963228453129e+06 -4.581529024420e+06 -3.066115733665e+06 -7.370828818223e+06 1.990723996986e+01 -2.376430498095e+00 -1.955845690355e+06 -5.281248555111e-12 -3.134627191091e-03 -7.177513624002e-03 0.000000000000e+00 4.594974968895e-06 -6.048830632934e-06 5.006157858769e+06 5.077362490071e+06  1.253547344443e-02
3.175000000000e+02 0.000000000000e+00 5.163149126594e+06 -4.641640737445e+06 -2.928415407676e+06 -7.388305844367e+06 1.997261617967e+01 -1.932399170266e+00 -2.047527175111e+06 -6.044699989189e-12 -4.331478001017e-03 -9.736193714676e-03 0.000000000000e+00 4.570688766647e-06 -6.508409628752e-06 4.986120663163e+06 5.268972297648e+06  1.312325981782e-02
3.182500000000e+02 0.000000000000e+00 5.236061026846e+06 -4.661346891442e+06 -2.883289694096e+06 -7.394019246131e+06 1.997596801198e+01 -1.936347188104e+00 -2.077585635667e+06 1.723354429889e-12 -4.006658235223e-03 -8.826875940016e-03 0.000000000000e+00 4.744753158593e-06 -6.472473449950e-06 4.979551943890e+06 5.332627829238e+06  1.331594903553e-02
3.193750000000e+02 0.000000000000e+00 5.266659345826e+06 -4.668284345735e+06 -2.867429531389e+06 -7.396004511443e+06 2.000854555904e+01 -1.944889455699e+00 -2.088212571860e+06 -4.529805452340e-12 -3.619112746379e-03 -8.036715971705e-03 0.000000000000e+00 4.916330101051e-06 -6.421849785234e-06 4.977239462856e+06 5.355152527651e+06  1.338397582344e-02
3.210625000000e+02 0.000000000000e+00 5.282341905717e+06 -4.671311981512e+06 -2.860520113305e+06 -7.396858675357e+06 2.009654727157e+01 -1.999906634382e+00 -2.092866880434e+06 -5.760190962687e-12 -3.373057156247e-03 -7.549175810880e-03 0.000000000000e+00 5.041586668000e-06 -6.383550671333e-06 4.976230256725e+06 5.365001873141e+06  1.341373153129e-02
3.235937500000e+02 0.000000000000e+00 5.290351305866e+06 -4.672770342089e+06 -2.857195982221e+06 -7.397266076934e+06 2.000567258440e+01 -1.962703717123e+00 -2.095110718625e+06 7.852937955897e-12 -3.242512056250e-03 -7.289817187895e-03 0.000000000000e+00 5.112054173937e-06 -6.360613871271e-06 4.975744133748e+06 5.369746608199e+06  1.342806962383e-02
3.273906250000e+02 0.000000000000e+00 5.293932778383e+06 -4.673432331046e+06 -2.855688105015e+06 -7.397449959402e+06 2.005525174245e+01 -1.978769217301e+00 -2.096128247407e+06 5.743389871826e-12 -3.185521601224e-03 -7.175540258768e-03 0.000000000000e+00 5.143187107878e-06 -6.349507188940e-06 4.975523465155e+06 5.371898576515e+06  1.343457210916e-02
3.330859375000e+02 0.000000000000e+00 5.295255629642e+06 -4.673687014076e+06 -2.855108038760e+06 -7.397520652995e+06 2.008566106766e+01 -1.994723617160e+00 -2.096519037146e+06 6.758828070175e-13 -3.165495445354e-03 -7.134885222372e-03 0.000000000000e+00 5.154178765430e-06 -6.345120949345e-06 4.975438568611e+06 5.372725750541e+06  1.343707043160e-02
3.416289062500e+02 0.000000000000e+00 5.295653251659e+06 -4.673767092709e+06 -2.854925594491e+06 -7.397542938176e+06 2.009040340804e+01 -1.997173215465e+00 -2.096641713975e+06 2.489437064663e-13 -3.159828996928e-03 -7.123217234083e-03 0.000000000000e+00 5.157310103167e-06 -6.343692521774e-06 4.975411875125e+06 5.372985689831e+06  1.343785506847e-02
3.544433593750e+02 0.000000000000e+00 5.295750727443e+06 -4.673787567042e+06 -2.854878939177e+06 -7.397548645411e+06 2.009149793883e+01 -1.997682629009e+00 -2.096673051433e+06 1.549719657600e-13 -3.158524259980e-03 -7.120490212136e-03 0.000000000000e+00 5.158040499189e-06 -6.343301188356e-06 4.975405050543e+06 5.373052129775e+06  1.343805555435e-02