 TITLE = "Time curves in points"
 VARIABLES = "TIME"  "STRAIN_PLS"  "VELOCITY_X1"  "VELOCITY_Y1"  "VELOCITY_Z1"  "DISPLACEMENT_X1"  "DISPLACEMENT_Y1"  "DISPLACEMENT_Z1"  "PRESSURE1"  "STRESS_XX"  "STRESS_YY"  "STRESS_ZZ"  p_(1st_Invariant)  q_(2nd_Invariant)   Effective_Strain
 ZONE T="POINT=INJ_POINT"
0.000000000000e+00 0.000000000000e+00 0.000000000000e+00 0.000000000000e+00 0.000000000000e+00 0.000000000000e+00 0.000000000000e+00 0.000000000000e+00 5.000000000000e+05 -3.300000000000e+06 -6.000000000000e+06 -7.000000000000e+06 5.433333333333e+06 3.315116890850e+06  0.000000000000e+00
5.000000000000e-02 0.000000000000e+00 -1.930067955736e-22 -3.827838688689e-18 1.220102913142e-18 0.000000000000e+00 1.407650714647e-18 -7.998918378441e-19 5.000000000000e+05 -3.300000000000e+06 -6.000000000000e+06 -7.000000000000e+06 5.433333333333e+06 3.315116890850e+06  6.860921110910e-17
1.000000000000e-01 0.000000000000e+00 -4.649611445849e-22 -1.369727971277e-18 3.332322859493e-19 0.000000000000e+00 1.393853633714e-18 -7.301114011653e-19 5.000000000000e+05 -3.300000000000e+06 -6.000000000000e+06 -7.000000000000e+06 5.433333333333e+06 3.315116890850e+06  6.467416272317e-17
1.500000000000e-01 0.000000000000e+00 2.991937889156e-13 7.669799695595e-10 -4.062311377533e-10 0.000000000000e+00 4.074513597563e-11 -6.684042118487e-11 6.223000000000e+05 -3.325909574871e+06 -5.973247424841e+06 -6.974933408418e+06 5.424696802710e+06 3.265554445235e+06  9.889637592210e-05
2.000000000000e-01 0.000000000000e+00 3.253630112164e-12 9.659977877964e-10 -7.505438857287e-10 0.000000000000e+00 2.692871801450e-10 -2.108409082122e-10 7.446000000000e+05 -3.343298082610e+06 -5.954797830358e+06 -6.958605993668e+06 5.418900635545e+06 3.232564619570e+06  1.558728311423e-04
2.750000000000e-01 0.000000000000e+00 3.658378057848e-12 -2.244705805509e-10 -4.164632467620e-10 0.000000000000e+00 5.257362569805e-10 -2.658276923810e-10 7.446000000000e+05 -3.338246207659e+06 -5.946603382054e+06 -6.976904137320e+06 5.420584575678e+06 3.248686387748e+06  1.809173516033e-04
3.875000000000e-01 0.000000000000e+00 1.180773558863e-12 -1.504444702124e-10 -1.831207163715e-10 0.000000000000e+00 7.732903159579e-10 -3.196097776472e-10 7.446000000000e+05 -3.338197116670e+06 -5.936532690477e+06 -6.987072993145e+06 5.420600933431e+06 3.253913317377e+06  2.332503176447e-04
5.562500000000e-01 0.000000000000e+00 1.336763982899e-13 -3.063633526216e-11 -1.126806282626e-10 0.000000000000e+00 1.057754152850e-09 -4.045886213266e-10 7.446000000000e+05 -3.339888533076e+06 -5.926844489793e+06 -6.993378391810e+06 5.420037138226e+06 3.254875884784e+06  2.829361677716e-04
8.093750000000e-01 0.000000000000e+00 1.620538741090e-13 -3.026833823561e-11 -1.027180261743e-10 0.000000000000e+00 1.391680531411e-09 -5.215634534349e-10 7.446000000000e+05 -3.342233287604e+06 -5.917622435472e+06 -6.997910925368e+06 5.419255549481e+06 3.254109718669e+06  3.283675692963e-04
1.189062500000e+00 0.000000000000e+00 8.467779533030e-14 -2.667665139522e-11 -7.146384254932e-11 0.000000000000e+00 1.787433885801e-09 -6.577740450467e-10 7.446000000000e+05 -3.344873834935e+06 -5.908795121007e+06 -7.001457140395e+06 5.418375365446e+06 3.252496666837e+06  3.706061642953e-04
1.758593750000e+00 0.000000000000e+00 4.204072860450e-14 -9.685814911215e-12 -2.016024551279e-11 0.000000000000e+00 2.246901128834e-09 -8.020256864926e-10 7.446000000000e+05 -3.347646701368e+06 -5.900331055819e+06 -7.004375463432e+06 5.417451073540e+06 3.250435764352e+06  4.102557434078e-04
2.612890625000e+00 0.000000000000e+00 1.247600165744e-14 1.997145400428e-11 5.030018076946e-11 0.000000000000e+00 2.793314796540e-09 -9.463437492871e-10 7.446000000000e+05 -3.350448346678e+06 -5.892257361344e+06 -7.006845867110e+06 5.416517191711e+06 3.248151622752e+06  4.474621550048e-04
3.894335937500e+00 0.000000000000e+00 3.658634091531e-15 4.921583749738e-11 1.134980572771e-10 0.000000000000e+00 3.493068512364e-09 -1.077494208742e-09 7.446000000000e+05 -3.353192382072e+06 -5.884653044082e+06 -7.008962113453e+06 5.415602513203e+06 3.245798420978e+06  4.820381328125e-04
5.816503906250e+00 0.000000000000e+00 7.018086302398e-16 5.329299556503e-11 1.179262920259e-10 0.000000000000e+00 4.430041473501e-09 -1.200282316725e-09 7.446000000000e+05 -3.355825341205e+06 -5.877578241228e+06 -7.010770998990e+06 5.414724860474e+06 3.243459921632e+06  5.138064009989e-04
8.699755859375e+00 0.000000000000e+00 4.599202343801e-17 3.850208997196e-11 8.390100742271e-11 0.000000000000e+00 5.607484685814e-09 -1.441546393935e-09 7.446000000000e+05 -3.358394106931e+06 -5.870823615056e+06 -7.012388094519e+06 5.413868605502e+06 3.241134431151e+06  5.438678836330e-04
1.302463378906e+01 0.000000000000e+00 4.272388606025e-18 2.063989443250e-11 4.439027720962e-11 0.000000000000e+00 6.900984116679e-09 -2.000591167151e-09 7.446000000000e+05 -3.360812861376e+06 -5.864525382073e+06 -7.013848819015e+06 5.413062354154e+06 3.238946001577e+06  5.717837387425e-04
1.951195068359e+01 0.000000000000e+00 7.377800116397e-18 1.137423301534e-12 2.181077791265e-12 0.000000000000e+00 8.278766730863e-09 -2.915464903340e-09 7.446000000000e+05 -3.362985686326e+06 -5.858938894640e+06 -7.015089656494e+06 5.412338079153e+06 3.236967571088e+06  5.964306506449e-04
2.250000000000e+01 0.000000000000e+00 -5.924306196290e-18 2.099063158600e-11 4.530627665305e-11 0.000000000000e+00 8.949576233786e-09 -3.220689344375e-09 7.446000000000e+05 -3.363780115456e+06 -5.856896774198e+06 -7.015542918637e+06 5.412073269430e+06 3.236251957988e+06  6.054763909550e-04
2.300000000000e+01 0.000000000000e+00 3.796109943729e-13 -1.403489780177e-10 -8.000317710827e-10 0.000000000000e+00 1.613278493505e-08 -6.019744397861e-09 1.331800000000e+06 -3.486287079183e+06 -5.590945917848e+06 -7.036479670951e+06 5.371237555994e+06 3.126468970870e+06  1.719068790884e-03
2.350000000000e+01 0.000000000000e+00 3.267409171995e-13 7.000531985157e-09 1.552677064644e-08 0.000000000000e+00 4.009967511711e-08 -1.215054159728e-08 1.919000000000e+06 -3.663724134275e+06 -5.181915929865e+06 -7.090635193783e+06 5.312091752641e+06 3.118629843496e+06  3.477377477750e-03
2.425000000000e+01 0.000000000000e+00 -9.014342729762e-14 1.921432090583e-10 8.940030138166e-10 0.000000000000e+00 6.839631495973e-08 -2.171467026770e-08 1.919000000000e+06 -3.692365470013e+06 -5.112279986160e+06 -7.102988552185e+06 5.302544669452e+06 3.138252549546e+06  3.782558579472e-03
2.537500000000e+01 0.000000000000e+00 3.162865387306e-15 3.476963124289e-07 7.463602818143e-07 0.000000000000e+00 1.005192745270e-07 -5.405086731318e-08 1.919000000000e+06 -3.707295204262e+06 -5.076063529471e+06 -7.109345520537e+06 5.297568084757e+06 3.150392795171e+06  3.942568201724e-03
2.706250000000e+01 0.000000000000e+00 -1.274188486625e-15 2.175109693979e-05 4.666965741245e-05 0.000000000000e+00 1.577274844254e-07 -3.811676402248e-08 1.919000000000e+06 -3.716122690644e+06 -5.054638595563e+06 -7.113115479155e+06 5.294625588454e+06 3.158263386942e+06  4.037867201009e-03
2.959375000000e+01 0.000000000000e+00 -1.857413562896e-16 2.068709724876e-05 4.484408846835e-05 0.000000000000e+00 1.786521845171e-07 -5.572941971634e-08 1.919000000000e+06 -3.722138899630e+06 -5.039998421515e+06 -7.115723234185e+06 5.292620185110e+06 3.164004728942e+06  4.103534238763e-03
3.339062500000e+01 0.000000000000e+00 -2.760862335681e-17 -1.265313220342e-06 -2.715958153276e-06 0.000000000000e+00 1.942121217963e-07 -1.605034252601e-07 1.919000000000e+06 -3.726577864862e+06 -5.029125113160e+06 -7.117718612240e+06 5.291140530087e+06 3.168471225312e+06  4.152267548046e-03
3.908593750000e+01 0.000000000000e+00 1.811115555117e-17 -1.217997780799e-05 -2.622145569618e-05 0.000000000000e+00 2.857898449992e-07 -1.216209707285e-07 1.919000000000e+06 -3.730387288941e+06 -5.019571030820e+06 -7.119653844951e+06 5.289870721571e+06 3.172721779176e+06  4.195142387033e-03
4.762890625000e+01 0.000000000000e+00 -2.216356019733e-18 -4.083977803836e-06 -8.770924768522e-06 0.000000000000e+00 3.841050348370e-07 -7.907023540260e-08 1.919000000000e+06 -3.731796950270e+06 -5.015719431975e+06 -7.120686120882e+06 5.289400834376e+06 3.174824887461e+06  4.212842707272e-03
6.044335937500e+01 0.000000000000e+00 -4.696474612704e-19 1.229927353847e-06 2.646368805670e-06 0.000000000000e+00 4.649035586223e-07 -1.168838097973e-07 1.919000000000e+06 -3.731084536175e+06 -5.016952840999e+06 -7.120877540088e+06 5.289638305754e+06 3.174929885650e+06  4.208228328115e-03
7.966503906250e+01 0.000000000000e+00 4.862268801859e-19 3.877656699470e-07 8.322237388472e-07 0.000000000000e+00 5.592935568568e-07 -1.780955610398e-07 1.919000000000e+06 -3.729523412058e+06 -5.020103857736e+06 -7.120848771459e+06 5.290158680417e+06 3.174428575299e+06  4.195378783057e-03
9.950000000000e+01 0.000000000000e+00 4.656990038371e-19 -4.420675706281e-07 -9.493513670587e-07 0.000000000000e+00 6.429785160861e-07 -2.131353135761e-07 1.919000000000e+06 -3.727920212460e+06 -5.023390643079e+06 -7.120768385070e+06 5.290693080203e+06 3.173832418778e+06  4.181813844160e-03
1.000000000000e+02 0.000000000000e+00 1.556759042498e-13 9.208136117699e-06 2.015165001952e-05 0.000000000000e+00 7.133313467599e-07 -2.299931060074e-07 2.773000000000e+06 -3.963788147761e+06 -4.491829873655e+06 -7.180592753604e+06 5.212070258340e+06 3.458983807333e+06  6.447303210736e-03
1.005000000000e+02 0.000000000000e+00 1.217030545987e-13 6.031723327319e-05 1.312530898922e-04 0.000000000000e+00 8.626893255295e-07 -2.955787348518e-07 3.627000000000e+06 -4.228200816714e+06 -3.887788782268e+06 -7.255807854395e+06 5.123932484459e+06 4.035254135879e+06  9.037734104682e-03
1.012500000000e+02 0.000000000000e+00 -1.232815699119e-15 -3.590113695580e-05 -7.723040884959e-05 0.000000000000e+00 1.001998093608e-06 -3.413895480687e-07 3.627000000000e+06 -4.242531685566e+06 -3.851824852387e+06 -7.263110037224e+06 5.119155525059e+06 4.079921531919e+06  9.199243916585e-03
1.023750000000e+02 0.000000000000e+00 -3.837896214729e-16 -2.048823384239e-05 -4.401432813480e-05 0.000000000000e+00 1.165923381695e-06 -3.511100381293e-07 3.627000000000e+06 -4.246094826662e+06 -3.842208993544e+06 -7.265599625797e+06 5.117967815334e+06 4.092786542559e+06  9.243896663001e-03
1.040625000000e+02 0.000000000000e+00 -5.979481375078e-17 1.111761259483e-07 2.388294157388e-07 0.000000000000e+00 1.336376467935e-06 -3.984042155267e-07 3.627000000000e+06 -4.244704233359e+06 -3.844557171842e+06 -7.266032638105e+06 5.118431347769e+06 4.091242468000e+06  9.235791292087e-03
1.065937500000e+02 0.000000000000e+00 -1.224046073445e-16 -2.304558304963e-06 -4.945952447257e-06 0.000000000000e+00 1.528783119796e-06 -4.560828014415e-07 3.627000000000e+06 -4.240785178239e+06 -3.852754563611e+06 -7.265673377220e+06 5.119737706357e+06 4.082933328119e+06  9.202179566341e-03
1.103906250000e+02 0.000000000000e+00 -6.281608126416e-17 -2.804551705162e-08 -5.940376399528e-08 0.000000000000e+00 1.751476485632e-06 -5.654971157065e-07 3.627000000000e+06 -4.233851774054e+06 -3.867785229976e+06 -7.264509529792e+06 5.122048844608e+06 4.066922401518e+06  9.138831387737e-03
1.160859375000e+02 0.000000000000e+00 1.320837188010e-17 -2.236038759027e-06 -4.798168305789e-06 0.000000000000e+00 2.062215848147e-06 -7.012635053759e-07 3.627000000000e+06 -4.223033693965e+06 -3.891367597104e+06 -7.262563318072e+06 5.125654869714e+06 4.041644287609e+06  9.038271049103e-03
1.246289062500e+02 0.000000000000e+00 6.347438073493e-18 -1.122028599495e-06 -2.408368170577e-06 0.000000000000e+00 2.440505169313e-06 -7.578421617780e-07 3.627000000000e+06 -4.210388392109e+06 -3.918942007058e+06 -7.260279509624e+06 5.129869969597e+06 4.012299773285e+06  8.920162252367e-03
1.374433593750e+02 0.000000000000e+00 -5.564452781806e-18 -2.253662338495e-06 -4.834526899874e-06 0.000000000000e+00 2.598016694455e-06 -8.037947148943e-07 3.627000000000e+06 -4.205035244959e+06 -3.930565152108e+06 -7.259362659531e+06 5.131654352199e+06 4.000100323693e+06  8.870448575720e-03
1.565000000000e+02 0.000000000000e+00 4.636485756545e-19 -2.013490520735e-06 -4.321111397740e-06 0.000000000000e+00 2.659288967047e-06 -8.220686680679e-07 3.627000000000e+06 -4.203344124452e+06 -3.934151034018e+06 -7.259159018296e+06 5.132218058922e+06 3.996458877013e+06  8.855258737324e-03
1.570000000000e+02 0.000000000000e+00 8.543292658257e-15 4.399392707275e-06 9.467136542182e-06 0.000000000000e+00 2.700966675338e-06 -8.370043362080e-07 3.860500000000e+06 -4.270657452335e+06 -3.781785378556e+06 -7.276897844737e+06 5.109780225209e+06 4.166367340812e+06  9.506301725220e-03
1.575000000000e+02 0.000000000000e+00 1.011282959989e-14 2.145824698254e-06 4.625505458044e-06 0.000000000000e+00 2.767992861986e-06 -8.598433559502e-07 4.094000000000e+06 -4.340675164073e+06 -3.622326824898e+06 -7.296320789306e+06 5.086440926092e+06 4.355695704550e+06  1.018953090144e-02
1.582500000000e+02 0.000000000000e+00 -1.825797592267e-16 -7.241041890387e-06 -1.555536283820e-05 0.000000000000e+00 2.824805951963e-06 -8.730851480031e-07 4.094000000000e+06 -4.342887551010e+06 -3.616318575223e+06 -7.297904263409e+06 5.085703463214e+06 4.364228192056e+06  1.021727059962e-02
1.593750000000e+02 0.000000000000e+00 -7.309946259515e-17 -5.267545790470e-06 -1.131212327484e-05 0.000000000000e+00 2.884514512834e-06 -8.859687074128e-07 4.094000000000e+06 -4.342489088271e+06 -3.616854219332e+06 -7.298165552792e+06 5.085836286798e+06 4.364058492311e+06  1.021582566316e-02
1.610625000000e+02 0.000000000000e+00 1.053733781664e-17 -3.647364957641e-06 -7.831480187525e-06 0.000000000000e+00 2.947305043500e-06 -8.996222018270e-07 4.094000000000e+06 -4.341180039107e+06 -3.619577805075e+06 -7.298060065158e+06 5.086272636447e+06 4.361058427799e+06  1.020467526129e-02
1.635937500000e+02 0.000000000000e+00 -3.199284482543e-17 -3.103651468064e-06 -6.663237999239e-06 0.000000000000e+00 3.006270598448e-06 -9.115720580510e-07 4.094000000000e+06 -4.339653781853e+06 -3.622841674357e+06 -7.297848716825e+06 5.086781391012e+06 4.357324620065e+06  1.019101829627e-02
1.673906250000e+02 0.000000000000e+00 5.164794112023e-18 -2.982139362503e-06 -6.401766069543e-06 0.000000000000e+00 3.051204958686e-06 -9.208747583731e-07 4.094000000000e+06 -4.338421994033e+06 -3.625483782199e+06 -7.297670186817e+06 5.087191987683e+06 4.354281076003e+06  1.017988601008e-02
1.730859375000e+02 0.000000000000e+00 1.491346995013e-17 -2.972186277817e-06 -6.380113102253e-06 0.000000000000e+00 3.078038853768e-06 -9.270386498124e-07 4.094000000000e+06 -4.337685054877e+06 -3.627057959216e+06 -7.297569887361e+06 5.087437633818e+06 4.352470299532e+06  1.017323502242e-02
1.816289062500e+02 0.000000000000e+00 -5.401976073499e-17 -2.952994421666e-06 -6.338899792659e-06 0.000000000000e+00 3.090575112660e-06 -9.301125509087e-07 4.094000000000e+06 -4.337348372426e+06 -3.627772209214e+06 -7.297529002176e+06 5.087549861272e+06 4.351652764454e+06  1.017021554554e-02
1.944433593750e+02 0.000000000000e+00 3.643626640775e-18 -2.925472755352e-06 -6.279897600823e-06 0.000000000000e+00 3.095187390091e-06 -9.312836350536e-07 4.094000000000e+06 -4.337229032836e+06 -3.628023255623e+06 -7.297516634964e+06 5.087589641141e+06 4.351367517633e+06  1.016915541112e-02
2.125000000000e+02 0.000000000000e+00 -5.284463126985e-18 -2.907852512749e-06 -6.242135688339e-06 0.000000000000e+00 3.096538477859e-06 -9.316446410560e-07 4.094000000000e+06 -4.337196115581e+06 -3.628091835684e+06 -7.297513889417e+06 5.087600613561e+06 4.351290381165e+06  1.016886676183e-02
2.130000000000e+02 0.000000000000e+00 5.899296530775e-15 2.159146926880e-06 4.643514936122e-06 0.000000000000e+00 3.139245905703e-06 -9.469882788468e-07 4.302500000000e+06 -4.397895733885e+06 -3.490494372693e+06 -7.313711958402e+06 5.067367354993e+06 4.521026527447e+06  1.075720809427e-02
2.135000000000e+02 0.000000000000e+00 7.072032868673e-15 -1.151830576784e-06 -2.471468914418e-06 0.000000000000e+00 3.208486317262e-06 -9.694212174078e-07 4.511000000000e+06 -4.460417504024e+06 -3.348060566271e+06 -7.331102055999e+06 5.046526708765e+06 4.704062275689e+06  1.136764194482e-02
2.142500000000e+02 0.000000000000e+00 -1.730138898087e-16 -8.164872701491e-06 -1.753486801833e-05 0.000000000000e+00 3.265219545621e-06 -9.827775556719e-07 4.511000000000e+06 -4.461678776439e+06 -3.344437879977e+06 -7.332202195626e+06 5.046106284014e+06 4.709711055533e+06  1.138475911079e-02
2.153750000000e+02 0.000000000000e+00 -6.382943582056e-17 -5.960451685426e-06 -1.279791844181e-05 0.000000000000e+00 3.321941095599e-06 -9.952600606854e-07 4.511000000000e+06 -4.460895600657e+06 -3.345933283651e+06 -7.332273151734e+06 5.046367345347e+06 4.708122420073e+06  1.137902144778e-02
2.170625000000e+02 0.000000000000e+00 -7.260295208430e-17 -4.780815507322e-06 -1.026397606445e-05 0.000000000000e+00 3.375562081131e-06 -1.006301455432e-06 4.511000000000e+06 -4.459623716457e+06 -3.348632887738e+06 -7.332117315223e+06 5.046791306473e+06 4.704831342368e+06  1.136784677558e-02
2.195937500000e+02 0.000000000000e+00 -1.028380354907e-16 -4.491170602140e-06 -9.641358358271e-06 0.000000000000e+00 3.418141929796e-06 -1.014632384039e-06 4.511000000000e+06 -4.458485486706e+06 -3.351077760936e+06 -7.331948906141e+06 5.047170717927e+06 4.701800498655e+06  1.135759913145e-02
2.233906250000e+02 0.000000000000e+00 -4.815601385937e-17 -4.468536964286e-06 -9.592324846616e-06 0.000000000000e+00 3.444952608889e-06 -1.020205598473e-06 4.511000000000e+06 -4.457752330973e+06 -3.352649889253e+06 -7.331843090628e+06 5.047415103618e+06 4.699847450420e+06  1.135097891740e-02
2.290859375000e+02 0.000000000000e+00 3.580006229105e-18 -4.462383829061e-06 -9.579022979579e-06 0.000000000000e+00 3.458204982869e-06 -1.023252407268e-06 4.511000000000e+06 -4.457394749883e+06 -3.353411862950e+06 -7.331796278719e+06 5.047534297184e+06 4.698903261598e+06  1.134776350920e-02
2.376289062500e+02 0.000000000000e+00 -1.852664959258e-17 -4.436629733002e-06 -9.523806847681e-06 0.000000000000e+00 3.463364682658e-06 -1.024480061191e-06 4.511000000000e+06 -4.457259816347e+06 -3.353697036786e+06 -7.331780971915e+06 5.047579275016e+06 4.698551685996e+06  1.134655975534e-02
2.504433593750e+02 0.000000000000e+00 -7.517970340656e-19 -4.415040438213e-06 -9.477537159832e-06 0.000000000000e+00 3.464960882092e-06 -1.024861151642e-06 4.511000000000e+06 -4.457219934556e+06 -3.353780500778e+06 -7.331777271511e+06 5.047592568949e+06 4.698449554722e+06  1.134620794482e-02
2.665000000000e+02 0.000000000000e+00 -5.554846873703e-17 -4.405120292646e-06 -9.456282398849e-06 0.000000000000e+00 3.465355978489e-06 -1.024953091581e-06 4.511000000000e+06 -4.457210711854e+06 -3.353799589663e+06 -7.331776628032e+06 5.047595643183e+06 4.698426432095e+06  1.134612777210e-02
2.670000000000e+02 0.000000000000e+00 6.440417751383e-15 3.904080724229e-07 8.420426771906e-07 0.000000000000e+00 3.523101216566e-06 -1.044883164596e-06 4.750500000000e+06 -4.527416254195e+06 -3.194455893431e+06 -7.350709055658e+06 5.024193734428e+06 4.909103710269e+06  1.202785538475e-02
2.675000000000e+02 0.000000000000e+00 7.535695686127e-15 -4.561048549511e-06 -9.798337992088e-06 0.000000000000e+00 3.616708448276e-06 -1.073646821593e-06 4.990000000000e+06 -4.599185200922e+06 -3.030872095524e+06 -7.370754762639e+06 5.000270686362e+06 5.132913280919e+06  1.272916445136e-02
2.682500000000e+02 0.000000000000e+00 -1.779981819417e-16 -1.090266869609e-05 -2.341191579496e-05 0.000000000000e+00 3.691507278929e-06 -1.091003032242e-06 4.990000000000e+06 -4.599754631683e+06 -3.028835328233e+06 -7.371652666124e+06 5.000080875347e+06 5.136621001823e+06  1.273953514096e-02
2.693750000000e+02 0.000000000000e+00 -1.770236424691e-16 -8.054225898477e-06 -1.729237446454e-05 0.000000000000e+00 3.761400434613e-06 -1.105767139717e-06 4.990000000000e+06 -4.598395417886e+06 -3.031641670706e+06 -7.371564761846e+06 5.000533950146e+06 5.133087714272e+06  1.272819723323e-02
2.710625000000e+02 0.000000000000e+00 -9.470321426225e-18 -7.035174183110e-06 -1.510302752274e-05 0.000000000000e+00 3.819202227425e-06 -1.116853249567e-06 4.990000000000e+06 -4.596900644395e+06 -3.034853932861e+06 -7.371342045043e+06 5.001032207433e+06 5.128856730566e+06  1.271481536409e-02
2.735937500000e+02 0.000000000000e+00 -8.240157959893e-17 -6.890099479923e-06 -1.479065068760e-05 0.000000000000e+00 3.857537453598e-06 -1.124039833426e-06 4.990000000000e+06 -4.595853212635e+06 -3.037111037201e+06 -7.371179808335e+06 5.001381352724e+06 5.125864718779e+06  1.270534469763e-02
2.773906250000e+02 0.000000000000e+00 -6.889715984778e-17 -6.883980420662e-06 -1.477722644655e-05 0.000000000000e+00 3.877455536848e-06 -1.128057762042e-06 4.990000000000e+06 -4.595311944332e+06 -3.038271111428e+06 -7.371102271725e+06 5.001561775828e+06 5.124328394499e+06  1.270046271917e-02
2.830859375000e+02 0.000000000000e+00 -4.756663298756e-17 -6.846034461962e-06 -1.469585229184e-05 0.000000000000e+00 3.885612485237e-06 -1.129837704893e-06 4.990000000000e+06 -4.595096822503e+06 -3.038728250450e+06 -7.371075376108e+06 5.001633483020e+06 5.123725202575e+06  1.269853621019e-02
2.916289062500e+02 0.000000000000e+00 -9.593758671802e-17 -6.805527357698e-06 -1.460903537261e-05 0.000000000000e+00 3.888267069013e-06 -1.130413769209e-06 4.990000000000e+06 -4.595029798305e+06 -3.038869252530e+06 -7.371068422404e+06 5.001655824413e+06 5.123540200818e+06  1.269794208202e-02
3.044433593750e+02 0.000000000000e+00 -3.091725573709e-17 -6.784542343704e-06 -1.456406860294e-05 0.000000000000e+00 3.888961492009e-06 -1.130560413563e-06 4.990000000000e+06 -4.595013205098e+06 -3.038903759626e+06 -7.371067101726e+06 5.001661355483e+06 5.123495280694e+06  1.269779695596e-02
3.165000000000e+02 0.000000000000e+00 -8.369129435362e-17 -6.777499198218e-06 -1.454898171044e-05 0.000000000000e+00 3.889106844718e-06 -1.130586108507e-06 4.990000000000e+06 -4.595009985857e+06 -3.038910377346e+06 -7.371066922487e+06 5.001662428564e+06 5.123486750847e+06  1.269776924404e-02
3.170000000000e+02 0.000000000000e+00 5.817253562886e-15 -3.141629118778e-06 -6.747495973383e-06 0.000000000000e+00 3.959137368512e-06 -1.153754965773e-06 5.237000000000e+06 -4.667747434064e+06 -2.873651173222e+06 -7.390851037040e+06 4.977416548109e+06 5.354695471998e+06  1.340516730012e-02
3.175000000000e+02 0.000000000000e+00 6.889931771632e-15 -8.924263081859e-06 -1.917212315633e-05 0.000000000000e+00 4.071417208245e-06 -1.186946501791e-06 5.484000000000e+06 -4.741517474642e+06 -2.705446212098e+06 -7.411515708618e+06 4.952826465119e+06 5.596212595459e+06  1.412648246612e-02
3.182500000000e+02 0.000000000000e+00 -2.220261001600e-16 -1.390490516767e-05 -2.985558056044e-05 0.000000000000e+00 4.157359174027e-06 -1.206335706484e-06 5.484000000000e+06 -4.741304740239e+06 -2.705267166866e+06 -7.412120221355e+06 4.952897376153e+06 5.597249962806e+06  1.412878752741e-02
3.193750000000e+02 0.000000000000e+00 -1.022782421684e-16 -1.103427149636e-05 -2.368894224610e-05 0.000000000000e+00 4.229565243703e-06 -1.220708153453e-06 5.484000000000e+06 -4.739661149475e+06 -2.708751996329e+06 -7.411922584456e+06 4.953445243420e+06 5.592510604680e+06  1.411448305788e-02
3.210625000000e+02 0.000000000000e+00 -4.865389936333e-17 -1.033945719947e-05 -2.219557623654e-05 0.000000000000e+00 4.280264142797e-06 -1.229986864603e-06 5.484000000000e+06 -4.738299774836e+06 -2.711693089962e+06 -7.411704237917e+06 4.953899034238e+06 5.588426223006e+06  1.410220280679e-02
3.235937500000e+02 0.000000000000e+00 -8.524711689575e-17 -1.028638851630e-05 -2.208091851065e-05 0.000000000000e+00 4.308311503328e-06 -1.235107306133e-06 5.484000000000e+06 -4.737532913194e+06 -2.713346335050e+06 -7.411584719082e+06 4.954154655775e+06 5.586125552795e+06  1.409526821039e-02
3.273906250000e+02 0.000000000000e+00 -8.645997533129e-17 -1.024268075194e-05 -2.198710607128e-05 0.000000000000e+00 4.320524530764e-06 -1.237467614769e-06 5.484000000000e+06 -4.737206865571e+06 -2.714043756681e+06 -7.411539393323e+06 4.954263338525e+06 5.585157242332e+06  1.409233685464e-02
3.330859375000e+02 0.000000000000e+00 -2.049911768550e-16 -1.017776925976e-05 -2.184797686549e-05 0.000000000000e+00 4.324754610763e-06 -1.238321086598e-06 5.484000000000e+06 -4.737098624405e+06 -2.714272913277e+06 -7.411526718923e+06 4.954299418868e+06 5.584840407103e+06  1.409137273369e-02
3.416289062500e+02 0.000000000000e+00 -1.184600927867e-16 -1.013759791652e-05 -2.176189256169e-05 0.000000000000e+00 4.325931290265e-06 -1.238548186244e-06 5.484000000000e+06 -4.737070067429e+06 -2.714332671244e+06 -7.411524074900e+06 4.954308937858e+06 5.584758277175e+06  1.409112144792e-02
3.544433593750e+02 0.000000000000e+00 -1.862394604431e-17 -1.012244517949e-05 -2.172942891247e-05 0.000000000000e+00 4.326197390039e-06 -1.238597293932e-06 5.484000000000e+06 -4.737063991162e+06 -2.714345222463e+06 -7.411523676215e+06 4.954310963280e+06 5.584741164673e+06  1.409106878772e-02
3.736650390625e+02 0.000000000000e+00 -1.580817318360e-16 -1.011847204508e-05 -2.172091915287e-05 0.000000000000e+00 4.326247264648e-06 -1.238607628402e-06 5.484000000000e+06 -4.737062934942e+06 -2.714347373936e+06 -7.411523637182e+06 4.954311315353e+06 5.584738262433e+06  1.409105980520e-02
4.024975585938e+02 0.000000000000e+00 -2.012217696870e-16 -1.011771490594e-05 -2.171929804346e-05 0.000000000000e+00 4.326255020072e-06 -1.238609697142e-06 5.484000000000e+06 -4.737062783563e+06 -2.714347677508e+06 -7.411523636369e+06 4.954311365813e+06 5.584737858477e+06  1.409105854718e-02
4.195000000000e+02 0.000000000000e+00 -2.149425732256e-16 -1.011761247311e-05 -2.171907880070e-05 0.000000000000e+00 4.326256014690e-06 -1.238609905937e-06 5.484000000000e+06 -4.737062764970e+06 -2.714347714307e+06 -7.411523636756e+06 4.954311372011e+06 5.584737809942e+06  1.409105839508e-02
4.200000000000e+02 0.000000000000e+00 1.053717477824e-14 -6.926234946290e-06 -1.487813493097e-05 0.000000000000e+00 4.464121979854e-06 -1.282171719770e-06 5.893000000000e+06 -4.857969170631e+06 -2.439352543110e+06 -7.444705671958e+06 4.914009128566e+06 5.988565120613e+06  1.526882477392e-02
4.205000000000e+02 0.000000000000e+00 1.199421397196e-14 -1.832472060500e-05 -3.937145525553e-05 0.000000000000e+00 4.688333080288e-06 -1.345598245774e-06 6.302000000000e+06 -4.979562237848e+06 -2.161931841930e+06 -7.478939885569e+06 4.873477988449e+06 6.407686266711e+06  1.645898967328e-02
4.212500000000e+02 0.000000000000e+00 -4.165387049801e-16 -2.303224728104e-05 -4.945062977988e-05 0.000000000000e+00 4.846026631922e-06 -1.379524365752e-06 6.302000000000e+06 -4.977580911075e+06 -2.165568209723e+06 -7.479266171797e+06 4.874138430865e+06 6.403143678458e+06  1.644558633013e-02
4.223750000000e+02 0.000000000000e+00 -2.603104463155e-16 -1.909090378489e-05 -4.098288168982e-05 0.000000000000e+00 4.954874411916e-06 -1.399721315941e-06 6.302000000000e+06 -4.974761365591e+06 -2.171659555382e+06 -7.478813933611e+06 4.875078284861e+06 6.394238495699e+06  1.642031843805e-02
4.240625000000e+02 0.000000000000e+00 -7.142785439132e-17 -1.867573960367e-05 -4.008905734395e-05 0.000000000000e+00 5.013606524797e-06 -1.410132819449e-06 6.302000000000e+06 -4.973137190053e+06 -2.175182898513e+06 -7.478538937812e+06 4.875619675459e+06 6.389052832456e+06  1.640558681434e-02
4.265937500000e+02 0.000000000000e+00 -3.362204847530e-16 -1.856089219515e-05 -3.984252691082e-05 0.000000000000e+00 5.038598517271e-06 -1.414503680716e-06 6.302000000000e+06 -4.972462690719e+06 -2.176635294050e+06 -7.478435543535e+06 4.875844509435e+06 6.386918815140e+06  1.639950258281e-02
4.303906250000e+02 0.000000000000e+00 -1.709550638767e-16 -1.837153945504e-05 -3.943672066075e-05 0.000000000000e+00 5.047119261737e-06 -1.415988602382e-06 6.302000000000e+06 -4.972243804309e+06 -2.177101363989e+06 -7.478407246855e+06 4.875917471718e+06 6.386236587387e+06  1.639754840568e-02
4.360859375000e+02 0.000000000000e+00 -5.850333922100e-16 -1.825014286074e-05 -3.917658658020e-05 0.000000000000e+00 5.049468956408e-06 -1.416391028233e-06 6.302000000000e+06 -4.972186889024e+06 -2.177221001903e+06 -7.478401439434e+06 4.875936443454e+06 6.386062300890e+06  1.639704658805e-02
4.446289062500e+02 0.000000000000e+00 -2.140139446681e-17 -1.820390237436e-05 -3.907752074778e-05 0.000000000000e+00 5.049997903677e-06 -1.416474016790e-06 6.302000000000e+06 -4.972174848633e+06 -2.177245966358e+06 -7.478400555756e+06 4.875940456916e+06 6.386026156950e+06  1.639694197713e-02
4.525000000000e+02 0.000000000000e+00 -7.564837051515e-17 -1.819161470055e-05 -3.905120474444e-05 0.000000000000e+00 5.050095437200e-06 -1.416486135348e-06 6.302000000000e+06 -4.972172787020e+06 -2.177250193668e+06 -7.478400451671e+06 4.875941144120e+06 6.386020085688e+06  1.639692435002e-02
4.530000000000e+02 0.000000000000e+00 1.083616980102e-13 -4.433324425919e-05 -9.499216925504e-05 0.000000000000e+00 4.614549993036e-06 -1.271604212087e-06 4.842000000000e+06 -4.547457148765e+06 -3.140814419779e+06 -7.364268737049e+06 5.017513435197e+06 4.991134123645e+06  1.227423829852e-02
4.535000000000e+02 0.000000000000e+00 5.621397795438e-13 -4.376451349081e-05 -9.369016953595e-05 0.000000000000e+00 4.187396042223e-06 -1.133944281499e-06 3.382000000000e+06 -4.136593940304e+06 -4.067746500475e+06 -7.259064382697e+06 5.154468274492e+06 3.878741830109e+06  8.316521119937e-03
4.542500000000e+02 0.000000000000e+00 -1.594594561793e-14 4.350299470961e-06 9.194447906614e-06 0.000000000000e+00 3.822207496151e-06 -1.032222999676e-06 3.382000000000e+06 -4.119878641255e+06 -4.114625558932e+06 -7.245615858117e+06 5.160040019435e+06 3.820181996879e+06  8.099033471306e-03
4.553750000000e+02 0.000000000000e+00 -1.112296070758e-15 9.795675174744e-06 2.089235140355e-05 0.000000000000e+00 3.491975813285e-06 -9.647458570691e-07 3.382000000000e+06 -4.116893382878e+06 -4.125437954101e+06 -7.240773945609e+06 5.161035094196e+06 3.804207325544e+06  8.044815704501e-03